h 0.1 0 6 tcp 40 ------- 0 0.0 5.0 0 0
h 0.2 2 6 tcp 40 ------- 0 2.0 3.0 0 1
+ 0.2 0 6 tcp 40 ------- 0 0.0 5.0 0 0
- 0.2 0 6 tcp 40 ------- 0 0.0 5.0 0 0
+ 0.3 2 6 tcp 40 ------- 0 2.0 3.0 0 1
- 0.3 2 6 tcp 40 ------- 0 2.0 3.0 0 1
r 0.300005 6 4 tcp 40 ------- 0 0.0 5.0 0 0
+ 0.300005 4 5 tcp 40 ------- 0 0.0 5.0 0 0
- 0.300005 4 5 tcp 40 ------- 0 0.0 5.0 0 0
r 0.301325 4 5 tcp 40 ------- 0 0.0 5.0 0 0
+ 0.301325 5 4 ack 40 ------- 0 5.0 0.0 0 2
- 0.301325 5 4 ack 40 ------- 0 5.0 0.0 0 2
r 0.302645 5 4 ack 40 ------- 0 5.0 0.0 0 2
h 0.302645 4 6 ack 40 ------- 0 5.0 0.0 0 2
r 0.400005 6 3 tcp 40 ------- 0 2.0 3.0 0 1
h 0.400005 3 6 ack 40 ------- 0 3.0 2.0 0 3
+ 0.402645 4 6 ack 40 ------- 0 5.0 0.0 0 2
- 0.402645 4 6 ack 40 ------- 0 5.0 0.0 0 2
+ 0.500005 3 6 ack 40 ------- 0 3.0 2.0 0 3
- 0.500005 3 6 ack 40 ------- 0 3.0 2.0 0 3
r 0.50265 6 0 ack 40 ------- 0 5.0 0.0 0 2
h 0.50265 0 6 tcp 1040 ------- 0 0.0 5.0 1 4
h 0.50265 0 6 tcp 1040 ------- 0 0.0 5.0 2 5
r 0.60001 6 2 ack 40 ------- 0 3.0 2.0 0 3
h 0.60001 2 6 tcp 1040 ------- 0 2.0 3.0 1 6
h 0.60001 2 6 tcp 1040 ------- 0 2.0 3.0 2 7
+ 0.60265 0 6 tcp 1040 ------- 0 0.0 5.0 1 4
- 0.60265 0 6 tcp 1040 ------- 0 0.0 5.0 1 4
+ 0.60265 0 6 tcp 1040 ------- 0 0.0 5.0 2 5
- 0.602667 0 6 tcp 1040 ------- 0 0.0 5.0 2 5
+ 0.70001 2 6 tcp 1040 ------- 0 2.0 3.0 1 6
- 0.70001 2 6 tcp 1040 ------- 0 2.0 3.0 1 6
+ 0.70001 2 6 tcp 1040 ------- 0 2.0 3.0 2 7
- 0.700027 2 6 tcp 1040 ------- 0 2.0 3.0 2 7
r 0.702671 6 4 tcp 1040 ------- 0 0.0 5.0 1 4
+ 0.702671 4 5 tcp 1040 ------- 0 0.0 5.0 1 4
- 0.702671 4 5 tcp 1040 ------- 0 0.0 5.0 1 4
r 0.702688 6 4 tcp 1040 ------- 0 0.0 5.0 2 5
+ 0.702688 4 5 tcp 1040 ------- 0 0.0 5.0 2 5
- 0.710991 4 5 tcp 1040 ------- 0 0.0 5.0 2 5
r 0.711991 4 5 tcp 1040 ------- 0 0.0 5.0 1 4
+ 0.711991 5 4 ack 40 ------- 0 5.0 0.0 1 8
- 0.711991 5 4 ack 40 ------- 0 5.0 0.0 1 8
r 0.713311 5 4 ack 40 ------- 0 5.0 0.0 1 8
h 0.713311 4 6 ack 40 ------- 0 5.0 0.0 1 8
r 0.720311 4 5 tcp 1040 ------- 0 0.0 5.0 2 5
+ 0.720311 5 4 ack 40 ------- 0 5.0 0.0 2 9
- 0.720311 5 4 ack 40 ------- 0 5.0 0.0 2 9
r 0.721631 5 4 ack 40 ------- 0 5.0 0.0 2 9
h 0.721631 4 6 ack 40 ------- 0 5.0 0.0 2 9
r 0.800031 6 3 tcp 1040 ------- 0 2.0 3.0 1 6
h 0.800031 3 6 ack 40 ------- 0 3.0 2.0 1 10
r 0.800048 6 3 tcp 1040 ------- 0 2.0 3.0 2 7
h 0.800048 3 6 ack 40 ------- 0 3.0 2.0 2 11
+ 0.813311 4 6 ack 40 ------- 0 5.0 0.0 1 8
- 0.813311 4 6 ack 40 ------- 0 5.0 0.0 1 8
+ 0.821631 4 6 ack 40 ------- 0 5.0 0.0 2 9
- 0.821631 4 6 ack 40 ------- 0 5.0 0.0 2 9
+ 0.900031 3 6 ack 40 ------- 0 3.0 2.0 1 10
- 0.900031 3 6 ack 40 ------- 0 3.0 2.0 1 10
+ 0.900048 3 6 ack 40 ------- 0 3.0 2.0 2 11
- 0.900048 3 6 ack 40 ------- 0 3.0 2.0 2 11
r 0.913316 6 0 ack 40 ------- 0 5.0 0.0 1 8
h 0.913316 0 6 tcp 1040 ------- 0 0.0 5.0 3 12
h 0.913316 0 6 tcp 1040 ------- 0 0.0 5.0 4 13
r 0.921636 6 0 ack 40 ------- 0 5.0 0.0 2 9
h 0.921636 0 6 tcp 1040 ------- 0 0.0 5.0 5 14
h 0.921636 0 6 tcp 1040 ------- 0 0.0 5.0 6 15
r 1.000036 6 2 ack 40 ------- 0 3.0 2.0 1 10
h 1.000036 2 6 tcp 1040 ------- 0 2.0 3.0 3 16
h 1.000036 2 6 tcp 1040 ------- 0 2.0 3.0 4 17
r 1.000053 6 2 ack 40 ------- 0 3.0 2.0 2 11
h 1.000053 2 6 tcp 1040 ------- 0 2.0 3.0 5 18
h 1.000053 2 6 tcp 1040 ------- 0 2.0 3.0 6 19
+ 1.013316 0 6 tcp 1040 ------- 0 0.0 5.0 3 12
- 1.013316 0 6 tcp 1040 ------- 0 0.0 5.0 3 12
+ 1.013316 0 6 tcp 1040 ------- 0 0.0 5.0 4 13
- 1.013333 0 6 tcp 1040 ------- 0 0.0 5.0 4 13
+ 1.021636 0 6 tcp 1040 ------- 0 0.0 5.0 5 14
- 1.021636 0 6 tcp 1040 ------- 0 0.0 5.0 5 14
+ 1.021636 0 6 tcp 1040 ------- 0 0.0 5.0 6 15
- 1.021653 0 6 tcp 1040 ------- 0 0.0 5.0 6 15
+ 1.100036 2 6 tcp 1040 ------- 0 2.0 3.0 3 16
- 1.100036 2 6 tcp 1040 ------- 0 2.0 3.0 3 16
+ 1.100036 2 6 tcp 1040 ------- 0 2.0 3.0 4 17
- 1.100053 2 6 tcp 1040 ------- 0 2.0 3.0 4 17
+ 1.100053 2 6 tcp 1040 ------- 0 2.0 3.0 5 18
+ 1.100053 2 6 tcp 1040 ------- 0 2.0 3.0 6 19
- 1.10007 2 6 tcp 1040 ------- 0 2.0 3.0 5 18
- 1.100087 2 6 tcp 1040 ------- 0 2.0 3.0 6 19
r 1.113337 6 4 tcp 1040 ------- 0 0.0 5.0 3 12
+ 1.113337 4 5 tcp 1040 ------- 0 0.0 5.0 3 12
- 1.113337 4 5 tcp 1040 ------- 0 0.0 5.0 3 12
r 1.113354 6 4 tcp 1040 ------- 0 0.0 5.0 4 13
+ 1.113354 4 5 tcp 1040 ------- 0 0.0 5.0 4 13
r 1.121657 6 4 tcp 1040 ------- 0 0.0 5.0 5 14
+ 1.121657 4 5 tcp 1040 ------- 0 0.0 5.0 5 14
- 1.121657 4 5 tcp 1040 ------- 0 0.0 5.0 4 13
r 1.121674 6 4 tcp 1040 ------- 0 0.0 5.0 6 15
+ 1.121674 4 5 tcp 1040 ------- 0 0.0 5.0 6 15
r 1.122657 4 5 tcp 1040 ------- 0 0.0 5.0 3 12
+ 1.122657 5 4 ack 40 ------- 0 5.0 0.0 3 20
- 1.122657 5 4 ack 40 ------- 0 5.0 0.0 3 20
r 1.123977 5 4 ack 40 ------- 0 5.0 0.0 3 20
h 1.123977 4 6 ack 40 ------- 0 5.0 0.0 3 20
- 1.129977 4 5 tcp 1040 ------- 0 0.0 5.0 5 14
r 1.130977 4 5 tcp 1040 ------- 0 0.0 5.0 4 13
+ 1.130977 5 4 ack 40 ------- 0 5.0 0.0 4 21
- 1.130977 5 4 ack 40 ------- 0 5.0 0.0 4 21
r 1.132297 5 4 ack 40 ------- 0 5.0 0.0 4 21
h 1.132297 4 6 ack 40 ------- 0 5.0 0.0 4 21
- 1.138297 4 5 tcp 1040 ------- 0 0.0 5.0 6 15
r 1.139297 4 5 tcp 1040 ------- 0 0.0 5.0 5 14
+ 1.139297 5 4 ack 40 ------- 0 5.0 0.0 5 22
- 1.139297 5 4 ack 40 ------- 0 5.0 0.0 5 22
r 1.140617 5 4 ack 40 ------- 0 5.0 0.0 5 22
h 1.140617 4 6 ack 40 ------- 0 5.0 0.0 5 22
r 1.147617 4 5 tcp 1040 ------- 0 0.0 5.0 6 15
+ 1.147617 5 4 ack 40 ------- 0 5.0 0.0 6 23
- 1.147617 5 4 ack 40 ------- 0 5.0 0.0 6 23
r 1.148937 5 4 ack 40 ------- 0 5.0 0.0 6 23
h 1.148937 4 6 ack 40 ------- 0 5.0 0.0 6 23
r 1.200057 6 3 tcp 1040 ------- 0 2.0 3.0 3 16
h 1.200057 3 6 ack 40 ------- 0 3.0 2.0 3 24
r 1.200074 6 3 tcp 1040 ------- 0 2.0 3.0 4 17
h 1.200074 3 6 ack 40 ------- 0 3.0 2.0 4 25
r 1.200091 6 3 tcp 1040 ------- 0 2.0 3.0 5 18
h 1.200091 3 6 ack 40 ------- 0 3.0 2.0 5 26
r 1.200108 6 3 tcp 1040 ------- 0 2.0 3.0 6 19
h 1.200108 3 6 ack 40 ------- 0 3.0 2.0 6 27
+ 1.223977 4 6 ack 40 ------- 0 5.0 0.0 3 20
- 1.223977 4 6 ack 40 ------- 0 5.0 0.0 3 20
+ 1.232297 4 6 ack 40 ------- 0 5.0 0.0 4 21
- 1.232297 4 6 ack 40 ------- 0 5.0 0.0 4 21
+ 1.240617 4 6 ack 40 ------- 0 5.0 0.0 5 22
- 1.240617 4 6 ack 40 ------- 0 5.0 0.0 5 22
+ 1.248937 4 6 ack 40 ------- 0 5.0 0.0 6 23
- 1.248937 4 6 ack 40 ------- 0 5.0 0.0 6 23
+ 1.300057 3 6 ack 40 ------- 0 3.0 2.0 3 24
- 1.300057 3 6 ack 40 ------- 0 3.0 2.0 3 24
+ 1.300074 3 6 ack 40 ------- 0 3.0 2.0 4 25
- 1.300074 3 6 ack 40 ------- 0 3.0 2.0 4 25
+ 1.300091 3 6 ack 40 ------- 0 3.0 2.0 5 26
- 1.300091 3 6 ack 40 ------- 0 3.0 2.0 5 26
+ 1.300108 3 6 ack 40 ------- 0 3.0 2.0 6 27
- 1.300108 3 6 ack 40 ------- 0 3.0 2.0 6 27
r 1.323982 6 0 ack 40 ------- 0 5.0 0.0 3 20
h 1.323982 0 6 tcp 1040 ------- 0 0.0 5.0 7 28
h 1.323982 0 6 tcp 1040 ------- 0 0.0 5.0 8 29
r 1.332302 6 0 ack 40 ------- 0 5.0 0.0 4 21
h 1.332302 0 6 tcp 1040 ------- 0 0.0 5.0 9 30
h 1.332302 0 6 tcp 1040 ------- 0 0.0 5.0 10 31
r 1.340622 6 0 ack 40 ------- 0 5.0 0.0 5 22
h 1.340622 0 6 tcp 1040 ------- 0 0.0 5.0 11 32
h 1.340622 0 6 tcp 1040 ------- 0 0.0 5.0 12 33
r 1.348942 6 0 ack 40 ------- 0 5.0 0.0 6 23
h 1.348942 0 6 tcp 1040 ------- 0 0.0 5.0 13 34
h 1.348942 0 6 tcp 1040 ------- 0 0.0 5.0 14 35
r 1.400062 6 2 ack 40 ------- 0 3.0 2.0 3 24
h 1.400062 2 6 tcp 1040 ------- 0 2.0 3.0 7 36
h 1.400062 2 6 tcp 1040 ------- 0 2.0 3.0 8 37
r 1.400079 6 2 ack 40 ------- 0 3.0 2.0 4 25
h 1.400079 2 6 tcp 1040 ------- 0 2.0 3.0 9 38
h 1.400079 2 6 tcp 1040 ------- 0 2.0 3.0 10 39
r 1.400096 6 2 ack 40 ------- 0 3.0 2.0 5 26
h 1.400096 2 6 tcp 1040 ------- 0 2.0 3.0 11 40
h 1.400096 2 6 tcp 1040 ------- 0 2.0 3.0 12 41
r 1.400113 6 2 ack 40 ------- 0 3.0 2.0 6 27
h 1.400113 2 6 tcp 1040 ------- 0 2.0 3.0 13 42
h 1.400113 2 6 tcp 1040 ------- 0 2.0 3.0 14 43
+ 1.423982 0 6 tcp 1040 ------- 0 0.0 5.0 7 28
- 1.423982 0 6 tcp 1040 ------- 0 0.0 5.0 7 28
+ 1.423982 0 6 tcp 1040 ------- 0 0.0 5.0 8 29
- 1.423999 0 6 tcp 1040 ------- 0 0.0 5.0 8 29
+ 1.432302 0 6 tcp 1040 ------- 0 0.0 5.0 9 30
- 1.432302 0 6 tcp 1040 ------- 0 0.0 5.0 9 30
+ 1.432302 0 6 tcp 1040 ------- 0 0.0 5.0 10 31
- 1.432319 0 6 tcp 1040 ------- 0 0.0 5.0 10 31
+ 1.440622 0 6 tcp 1040 ------- 0 0.0 5.0 11 32
- 1.440622 0 6 tcp 1040 ------- 0 0.0 5.0 11 32
+ 1.440622 0 6 tcp 1040 ------- 0 0.0 5.0 12 33
- 1.440639 0 6 tcp 1040 ------- 0 0.0 5.0 12 33
+ 1.448942 0 6 tcp 1040 ------- 0 0.0 5.0 13 34
- 1.448942 0 6 tcp 1040 ------- 0 0.0 5.0 13 34
+ 1.448942 0 6 tcp 1040 ------- 0 0.0 5.0 14 35
- 1.448959 0 6 tcp 1040 ------- 0 0.0 5.0 14 35
+ 1.500062 2 6 tcp 1040 ------- 0 2.0 3.0 7 36
- 1.500062 2 6 tcp 1040 ------- 0 2.0 3.0 7 36
+ 1.500062 2 6 tcp 1040 ------- 0 2.0 3.0 8 37
+ 1.500079 2 6 tcp 1040 ------- 0 2.0 3.0 9 38
+ 1.500079 2 6 tcp 1040 ------- 0 2.0 3.0 10 39
- 1.500079 2 6 tcp 1040 ------- 0 2.0 3.0 8 37
+ 1.500096 2 6 tcp 1040 ------- 0 2.0 3.0 11 40
+ 1.500096 2 6 tcp 1040 ------- 0 2.0 3.0 12 41
- 1.500096 2 6 tcp 1040 ------- 0 2.0 3.0 9 38
+ 1.500113 2 6 tcp 1040 ------- 0 2.0 3.0 13 42
+ 1.500113 2 6 tcp 1040 ------- 0 2.0 3.0 14 43
- 1.500113 2 6 tcp 1040 ------- 0 2.0 3.0 10 39
- 1.50013 2 6 tcp 1040 ------- 0 2.0 3.0 11 40
- 1.500147 2 6 tcp 1040 ------- 0 2.0 3.0 12 41
- 1.500164 2 6 tcp 1040 ------- 0 2.0 3.0 13 42
- 1.500181 2 6 tcp 1040 ------- 0 2.0 3.0 14 43
r 1.524003 6 4 tcp 1040 ------- 0 0.0 5.0 7 28
+ 1.524003 4 5 tcp 1040 ------- 0 0.0 5.0 7 28
- 1.524003 4 5 tcp 1040 ------- 0 0.0 5.0 7 28
r 1.52402 6 4 tcp 1040 ------- 0 0.0 5.0 8 29
+ 1.52402 4 5 tcp 1040 ------- 0 0.0 5.0 8 29
r 1.532323 6 4 tcp 1040 ------- 0 0.0 5.0 9 30
+ 1.532323 4 5 tcp 1040 ------- 0 0.0 5.0 9 30
- 1.532323 4 5 tcp 1040 ------- 0 0.0 5.0 8 29
r 1.53234 6 4 tcp 1040 ------- 0 0.0 5.0 10 31
+ 1.53234 4 5 tcp 1040 ------- 0 0.0 5.0 10 31
r 1.533323 4 5 tcp 1040 ------- 0 0.0 5.0 7 28
+ 1.533323 5 4 ack 40 ------- 0 5.0 0.0 7 44
- 1.533323 5 4 ack 40 ------- 0 5.0 0.0 7 44
r 1.534643 5 4 ack 40 ------- 0 5.0 0.0 7 44
h 1.534643 4 6 ack 40 ------- 0 5.0 0.0 7 44
r 1.540643 6 4 tcp 1040 ------- 0 0.0 5.0 11 32
+ 1.540643 4 5 tcp 1040 ------- 0 0.0 5.0 11 32
- 1.540643 4 5 tcp 1040 ------- 0 0.0 5.0 9 30
r 1.54066 6 4 tcp 1040 ------- 0 0.0 5.0 12 33
+ 1.54066 4 5 tcp 1040 ------- 0 0.0 5.0 12 33
r 1.541643 4 5 tcp 1040 ------- 0 0.0 5.0 8 29
+ 1.541643 5 4 ack 40 ------- 0 5.0 0.0 8 45
- 1.541643 5 4 ack 40 ------- 0 5.0 0.0 8 45
r 1.542963 5 4 ack 40 ------- 0 5.0 0.0 8 45
h 1.542963 4 6 ack 40 ------- 0 5.0 0.0 8 45
r 1.548963 6 4 tcp 1040 ------- 0 0.0 5.0 13 34
+ 1.548963 4 5 tcp 1040 ------- 0 0.0 5.0 13 34
- 1.548963 4 5 tcp 1040 ------- 0 0.0 5.0 10 31
r 1.54898 6 4 tcp 1040 ------- 0 0.0 5.0 14 35
+ 1.54898 4 5 tcp 1040 ------- 0 0.0 5.0 14 35
r 1.549963 4 5 tcp 1040 ------- 0 0.0 5.0 9 30
+ 1.549963 5 4 ack 40 ------- 0 5.0 0.0 9 46
- 1.549963 5 4 ack 40 ------- 0 5.0 0.0 9 46
r 1.551283 5 4 ack 40 ------- 0 5.0 0.0 9 46
h 1.551283 4 6 ack 40 ------- 0 5.0 0.0 9 46
- 1.557283 4 5 tcp 1040 ------- 0 0.0 5.0 11 32
r 1.558283 4 5 tcp 1040 ------- 0 0.0 5.0 10 31
+ 1.558283 5 4 ack 40 ------- 0 5.0 0.0 10 47
- 1.558283 5 4 ack 40 ------- 0 5.0 0.0 10 47
r 1.559603 5 4 ack 40 ------- 0 5.0 0.0 10 47
h 1.559603 4 6 ack 40 ------- 0 5.0 0.0 10 47
- 1.565603 4 5 tcp 1040 ------- 0 0.0 5.0 12 33
r 1.566603 4 5 tcp 1040 ------- 0 0.0 5.0 11 32
+ 1.566603 5 4 ack 40 ------- 0 5.0 0.0 11 48
- 1.566603 5 4 ack 40 ------- 0 5.0 0.0 11 48
r 1.567923 5 4 ack 40 ------- 0 5.0 0.0 11 48
h 1.567923 4 6 ack 40 ------- 0 5.0 0.0 11 48
- 1.573923 4 5 tcp 1040 ------- 0 0.0 5.0 13 34
r 1.574923 4 5 tcp 1040 ------- 0 0.0 5.0 12 33
+ 1.574923 5 4 ack 40 ------- 0 5.0 0.0 12 49
- 1.574923 5 4 ack 40 ------- 0 5.0 0.0 12 49
r 1.576243 5 4 ack 40 ------- 0 5.0 0.0 12 49
h 1.576243 4 6 ack 40 ------- 0 5.0 0.0 12 49
- 1.582243 4 5 tcp 1040 ------- 0 0.0 5.0 14 35
r 1.583243 4 5 tcp 1040 ------- 0 0.0 5.0 13 34
+ 1.583243 5 4 ack 40 ------- 0 5.0 0.0 13 50
- 1.583243 5 4 ack 40 ------- 0 5.0 0.0 13 50
r 1.584563 5 4 ack 40 ------- 0 5.0 0.0 13 50
h 1.584563 4 6 ack 40 ------- 0 5.0 0.0 13 50
r 1.591563 4 5 tcp 1040 ------- 0 0.0 5.0 14 35
+ 1.591563 5 4 ack 40 ------- 0 5.0 0.0 14 51
- 1.591563 5 4 ack 40 ------- 0 5.0 0.0 14 51
r 1.592883 5 4 ack 40 ------- 0 5.0 0.0 14 51
h 1.592883 4 6 ack 40 ------- 0 5.0 0.0 14 51
r 1.600083 6 3 tcp 1040 ------- 0 2.0 3.0 7 36
h 1.600083 3 6 ack 40 ------- 0 3.0 2.0 7 52
r 1.6001 6 3 tcp 1040 ------- 0 2.0 3.0 8 37
h 1.6001 3 6 ack 40 ------- 0 3.0 2.0 8 53
r 1.600117 6 3 tcp 1040 ------- 0 2.0 3.0 9 38
h 1.600117 3 6 ack 40 ------- 0 3.0 2.0 9 54
r 1.600134 6 3 tcp 1040 ------- 0 2.0 3.0 10 39
h 1.600134 3 6 ack 40 ------- 0 3.0 2.0 10 55
r 1.600151 6 3 tcp 1040 ------- 0 2.0 3.0 11 40
h 1.600151 3 6 ack 40 ------- 0 3.0 2.0 11 56
r 1.600168 6 3 tcp 1040 ------- 0 2.0 3.0 12 41
h 1.600168 3 6 ack 40 ------- 0 3.0 2.0 12 57
r 1.600185 6 3 tcp 1040 ------- 0 2.0 3.0 13 42
h 1.600185 3 6 ack 40 ------- 0 3.0 2.0 13 58
r 1.600202 6 3 tcp 1040 ------- 0 2.0 3.0 14 43
h 1.600202 3 6 ack 40 ------- 0 3.0 2.0 14 59
+ 1.634643 4 6 ack 40 ------- 0 5.0 0.0 7 44
- 1.634643 4 6 ack 40 ------- 0 5.0 0.0 7 44
+ 1.642963 4 6 ack 40 ------- 0 5.0 0.0 8 45
- 1.642963 4 6 ack 40 ------- 0 5.0 0.0 8 45
+ 1.651283 4 6 ack 40 ------- 0 5.0 0.0 9 46
- 1.651283 4 6 ack 40 ------- 0 5.0 0.0 9 46
+ 1.659603 4 6 ack 40 ------- 0 5.0 0.0 10 47
- 1.659603 4 6 ack 40 ------- 0 5.0 0.0 10 47
+ 1.667923 4 6 ack 40 ------- 0 5.0 0.0 11 48
- 1.667923 4 6 ack 40 ------- 0 5.0 0.0 11 48
+ 1.676243 4 6 ack 40 ------- 0 5.0 0.0 12 49
- 1.676243 4 6 ack 40 ------- 0 5.0 0.0 12 49
+ 1.684563 4 6 ack 40 ------- 0 5.0 0.0 13 50
- 1.684563 4 6 ack 40 ------- 0 5.0 0.0 13 50
+ 1.692883 4 6 ack 40 ------- 0 5.0 0.0 14 51
- 1.692883 4 6 ack 40 ------- 0 5.0 0.0 14 51
+ 1.700083 3 6 ack 40 ------- 0 3.0 2.0 7 52
- 1.700083 3 6 ack 40 ------- 0 3.0 2.0 7 52
+ 1.7001 3 6 ack 40 ------- 0 3.0 2.0 8 53
- 1.7001 3 6 ack 40 ------- 0 3.0 2.0 8 53
+ 1.700117 3 6 ack 40 ------- 0 3.0 2.0 9 54
- 1.700117 3 6 ack 40 ------- 0 3.0 2.0 9 54
+ 1.700134 3 6 ack 40 ------- 0 3.0 2.0 10 55
- 1.700134 3 6 ack 40 ------- 0 3.0 2.0 10 55
+ 1.700151 3 6 ack 40 ------- 0 3.0 2.0 11 56
- 1.700151 3 6 ack 40 ------- 0 3.0 2.0 11 56
+ 1.700168 3 6 ack 40 ------- 0 3.0 2.0 12 57
- 1.700168 3 6 ack 40 ------- 0 3.0 2.0 12 57
+ 1.700185 3 6 ack 40 ------- 0 3.0 2.0 13 58
- 1.700185 3 6 ack 40 ------- 0 3.0 2.0 13 58
+ 1.700202 3 6 ack 40 ------- 0 3.0 2.0 14 59
- 1.700202 3 6 ack 40 ------- 0 3.0 2.0 14 59
r 1.734648 6 0 ack 40 ------- 0 5.0 0.0 7 44
h 1.734648 0 6 tcp 1040 ------- 0 0.0 5.0 15 60
h 1.734648 0 6 tcp 1040 ------- 0 0.0 5.0 16 61
r 1.742968 6 0 ack 40 ------- 0 5.0 0.0 8 45
h 1.742968 0 6 tcp 1040 ------- 0 0.0 5.0 17 62
h 1.742968 0 6 tcp 1040 ------- 0 0.0 5.0 18 63
r 1.751288 6 0 ack 40 ------- 0 5.0 0.0 9 46
h 1.751288 0 6 tcp 1040 ------- 0 0.0 5.0 19 64
h 1.751288 0 6 tcp 1040 ------- 0 0.0 5.0 20 65
r 1.759608 6 0 ack 40 ------- 0 5.0 0.0 10 47
h 1.759608 0 6 tcp 1040 ------- 0 0.0 5.0 21 66
h 1.759608 0 6 tcp 1040 ------- 0 0.0 5.0 22 67
r 1.767928 6 0 ack 40 ------- 0 5.0 0.0 11 48
h 1.767928 0 6 tcp 1040 ------- 0 0.0 5.0 23 68
h 1.767928 0 6 tcp 1040 ------- 0 0.0 5.0 24 69
r 1.776248 6 0 ack 40 ------- 0 5.0 0.0 12 49
h 1.776248 0 6 tcp 1040 ------- 0 0.0 5.0 25 70
h 1.776248 0 6 tcp 1040 ------- 0 0.0 5.0 26 71
r 1.784568 6 0 ack 40 ------- 0 5.0 0.0 13 50
h 1.784568 0 6 tcp 1040 ------- 0 0.0 5.0 27 72
h 1.784568 0 6 tcp 1040 ------- 0 0.0 5.0 28 73
r 1.792888 6 0 ack 40 ------- 0 5.0 0.0 14 51
h 1.792888 0 6 tcp 1040 ------- 0 0.0 5.0 29 74
h 1.792888 0 6 tcp 1040 ------- 0 0.0 5.0 30 75
r 1.800088 6 2 ack 40 ------- 0 3.0 2.0 7 52
h 1.800088 2 6 tcp 1040 ------- 0 2.0 3.0 15 76
h 1.800088 2 6 tcp 1040 ------- 0 2.0 3.0 16 77
r 1.800105 6 2 ack 40 ------- 0 3.0 2.0 8 53
h 1.800105 2 6 tcp 1040 ------- 0 2.0 3.0 17 78
h 1.800105 2 6 tcp 1040 ------- 0 2.0 3.0 18 79
r 1.800122 6 2 ack 40 ------- 0 3.0 2.0 9 54
h 1.800122 2 6 tcp 1040 ------- 0 2.0 3.0 19 80
h 1.800122 2 6 tcp 1040 ------- 0 2.0 3.0 20 81
r 1.800139 6 2 ack 40 ------- 0 3.0 2.0 10 55
h 1.800139 2 6 tcp 1040 ------- 0 2.0 3.0 21 82
h 1.800139 2 6 tcp 1040 ------- 0 2.0 3.0 22 83
r 1.800156 6 2 ack 40 ------- 0 3.0 2.0 11 56
h 1.800156 2 6 tcp 1040 ------- 0 2.0 3.0 23 84
h 1.800156 2 6 tcp 1040 ------- 0 2.0 3.0 24 85
r 1.800173 6 2 ack 40 ------- 0 3.0 2.0 12 57
h 1.800173 2 6 tcp 1040 ------- 0 2.0 3.0 25 86
h 1.800173 2 6 tcp 1040 ------- 0 2.0 3.0 26 87
r 1.80019 6 2 ack 40 ------- 0 3.0 2.0 13 58
h 1.80019 2 6 tcp 1040 ------- 0 2.0 3.0 27 88
h 1.80019 2 6 tcp 1040 ------- 0 2.0 3.0 28 89
r 1.800207 6 2 ack 40 ------- 0 3.0 2.0 14 59
h 1.800207 2 6 tcp 1040 ------- 0 2.0 3.0 29 90
h 1.800207 2 6 tcp 1040 ------- 0 2.0 3.0 30 91
+ 1.834648 0 6 tcp 1040 ------- 0 0.0 5.0 15 60
- 1.834648 0 6 tcp 1040 ------- 0 0.0 5.0 15 60
+ 1.834648 0 6 tcp 1040 ------- 0 0.0 5.0 16 61
- 1.834665 0 6 tcp 1040 ------- 0 0.0 5.0 16 61
+ 1.842968 0 6 tcp 1040 ------- 0 0.0 5.0 17 62
- 1.842968 0 6 tcp 1040 ------- 0 0.0 5.0 17 62
+ 1.842968 0 6 tcp 1040 ------- 0 0.0 5.0 18 63
- 1.842985 0 6 tcp 1040 ------- 0 0.0 5.0 18 63
+ 1.851288 0 6 tcp 1040 ------- 0 0.0 5.0 19 64
- 1.851288 0 6 tcp 1040 ------- 0 0.0 5.0 19 64
+ 1.851288 0 6 tcp 1040 ------- 0 0.0 5.0 20 65
- 1.851305 0 6 tcp 1040 ------- 0 0.0 5.0 20 65
+ 1.859608 0 6 tcp 1040 ------- 0 0.0 5.0 21 66
- 1.859608 0 6 tcp 1040 ------- 0 0.0 5.0 21 66
+ 1.859608 0 6 tcp 1040 ------- 0 0.0 5.0 22 67
- 1.859625 0 6 tcp 1040 ------- 0 0.0 5.0 22 67
+ 1.867928 0 6 tcp 1040 ------- 0 0.0 5.0 23 68
- 1.867928 0 6 tcp 1040 ------- 0 0.0 5.0 23 68
+ 1.867928 0 6 tcp 1040 ------- 0 0.0 5.0 24 69
- 1.867945 0 6 tcp 1040 ------- 0 0.0 5.0 24 69
+ 1.876248 0 6 tcp 1040 ------- 0 0.0 5.0 25 70
- 1.876248 0 6 tcp 1040 ------- 0 0.0 5.0 25 70
+ 1.876248 0 6 tcp 1040 ------- 0 0.0 5.0 26 71
- 1.876265 0 6 tcp 1040 ------- 0 0.0 5.0 26 71
+ 1.884568 0 6 tcp 1040 ------- 0 0.0 5.0 27 72
- 1.884568 0 6 tcp 1040 ------- 0 0.0 5.0 27 72
+ 1.884568 0 6 tcp 1040 ------- 0 0.0 5.0 28 73
- 1.884585 0 6 tcp 1040 ------- 0 0.0 5.0 28 73
+ 1.892888 0 6 tcp 1040 ------- 0 0.0 5.0 29 74
- 1.892888 0 6 tcp 1040 ------- 0 0.0 5.0 29 74
+ 1.892888 0 6 tcp 1040 ------- 0 0.0 5.0 30 75
- 1.892905 0 6 tcp 1040 ------- 0 0.0 5.0 30 75
+ 1.900088 2 6 tcp 1040 ------- 0 2.0 3.0 15 76
- 1.900088 2 6 tcp 1040 ------- 0 2.0 3.0 15 76
+ 1.900088 2 6 tcp 1040 ------- 0 2.0 3.0 16 77
+ 1.900105 2 6 tcp 1040 ------- 0 2.0 3.0 17 78
+ 1.900105 2 6 tcp 1040 ------- 0 2.0 3.0 18 79
- 1.900105 2 6 tcp 1040 ------- 0 2.0 3.0 16 77
+ 1.900122 2 6 tcp 1040 ------- 0 2.0 3.0 19 80
+ 1.900122 2 6 tcp 1040 ------- 0 2.0 3.0 20 81
- 1.900122 2 6 tcp 1040 ------- 0 2.0 3.0 17 78
+ 1.900139 2 6 tcp 1040 ------- 0 2.0 3.0 21 82
+ 1.900139 2 6 tcp 1040 ------- 0 2.0 3.0 22 83
- 1.900139 2 6 tcp 1040 ------- 0 2.0 3.0 18 79
+ 1.900156 2 6 tcp 1040 ------- 0 2.0 3.0 23 84
+ 1.900156 2 6 tcp 1040 ------- 0 2.0 3.0 24 85
- 1.900156 2 6 tcp 1040 ------- 0 2.0 3.0 19 80
+ 1.900173 2 6 tcp 1040 ------- 0 2.0 3.0 25 86
+ 1.900173 2 6 tcp 1040 ------- 0 2.0 3.0 26 87
- 1.900173 2 6 tcp 1040 ------- 0 2.0 3.0 20 81
+ 1.90019 2 6 tcp 1040 ------- 0 2.0 3.0 27 88
+ 1.90019 2 6 tcp 1040 ------- 0 2.0 3.0 28 89
- 1.90019 2 6 tcp 1040 ------- 0 2.0 3.0 21 82
+ 1.900207 2 6 tcp 1040 ------- 0 2.0 3.0 29 90
+ 1.900207 2 6 tcp 1040 ------- 0 2.0 3.0 30 91
- 1.900207 2 6 tcp 1040 ------- 0 2.0 3.0 22 83
- 1.900224 2 6 tcp 1040 ------- 0 2.0 3.0 23 84
- 1.900241 2 6 tcp 1040 ------- 0 2.0 3.0 24 85
- 1.900258 2 6 tcp 1040 ------- 0 2.0 3.0 25 86
- 1.900275 2 6 tcp 1040 ------- 0 2.0 3.0 26 87
- 1.900292 2 6 tcp 1040 ------- 0 2.0 3.0 27 88
- 1.900309 2 6 tcp 1040 ------- 0 2.0 3.0 28 89
- 1.900326 2 6 tcp 1040 ------- 0 2.0 3.0 29 90
- 1.900344 2 6 tcp 1040 ------- 0 2.0 3.0 30 91
r 1.934669 6 4 tcp 1040 ------- 0 0.0 5.0 15 60
+ 1.934669 4 5 tcp 1040 ------- 0 0.0 5.0 15 60
- 1.934669 4 5 tcp 1040 ------- 0 0.0 5.0 15 60
r 1.934686 6 4 tcp 1040 ------- 0 0.0 5.0 16 61
+ 1.934686 4 5 tcp 1040 ------- 0 0.0 5.0 16 61
r 1.942989 6 4 tcp 1040 ------- 0 0.0 5.0 17 62
+ 1.942989 4 5 tcp 1040 ------- 0 0.0 5.0 17 62
- 1.942989 4 5 tcp 1040 ------- 0 0.0 5.0 16 61
r 1.943006 6 4 tcp 1040 ------- 0 0.0 5.0 18 63
+ 1.943006 4 5 tcp 1040 ------- 0 0.0 5.0 18 63
r 1.943989 4 5 tcp 1040 ------- 0 0.0 5.0 15 60
+ 1.943989 5 4 ack 40 ------- 0 5.0 0.0 15 92
- 1.943989 5 4 ack 40 ------- 0 5.0 0.0 15 92
r 1.945309 5 4 ack 40 ------- 0 5.0 0.0 15 92
h 1.945309 4 6 ack 40 ------- 0 5.0 0.0 15 92
r 1.951309 6 4 tcp 1040 ------- 0 0.0 5.0 19 64
+ 1.951309 4 5 tcp 1040 ------- 0 0.0 5.0 19 64
- 1.951309 4 5 tcp 1040 ------- 0 0.0 5.0 17 62
r 1.951326 6 4 tcp 1040 ------- 0 0.0 5.0 20 65
+ 1.951326 4 5 tcp 1040 ------- 0 0.0 5.0 20 65
r 1.952309 4 5 tcp 1040 ------- 0 0.0 5.0 16 61
+ 1.952309 5 4 ack 40 ------- 0 5.0 0.0 16 93
- 1.952309 5 4 ack 40 ------- 0 5.0 0.0 16 93
r 1.953629 5 4 ack 40 ------- 0 5.0 0.0 16 93
h 1.953629 4 6 ack 40 ------- 0 5.0 0.0 16 93
r 1.959629 6 4 tcp 1040 ------- 0 0.0 5.0 21 66
+ 1.959629 4 5 tcp 1040 ------- 0 0.0 5.0 21 66
- 1.959629 4 5 tcp 1040 ------- 0 0.0 5.0 18 63
r 1.959646 6 4 tcp 1040 ------- 0 0.0 5.0 22 67
+ 1.959646 4 5 tcp 1040 ------- 0 0.0 5.0 22 67
r 1.960629 4 5 tcp 1040 ------- 0 0.0 5.0 17 62
+ 1.960629 5 4 ack 40 ------- 0 5.0 0.0 17 94
- 1.960629 5 4 ack 40 ------- 0 5.0 0.0 17 94
r 1.961949 5 4 ack 40 ------- 0 5.0 0.0 17 94
h 1.961949 4 6 ack 40 ------- 0 5.0 0.0 17 94
r 1.967949 6 4 tcp 1040 ------- 0 0.0 5.0 23 68
+ 1.967949 4 5 tcp 1040 ------- 0 0.0 5.0 23 68
- 1.967949 4 5 tcp 1040 ------- 0 0.0 5.0 19 64
r 1.967966 6 4 tcp 1040 ------- 0 0.0 5.0 24 69
+ 1.967966 4 5 tcp 1040 ------- 0 0.0 5.0 24 69
r 1.968949 4 5 tcp 1040 ------- 0 0.0 5.0 18 63
+ 1.968949 5 4 ack 40 ------- 0 5.0 0.0 18 95
- 1.968949 5 4 ack 40 ------- 0 5.0 0.0 18 95
r 1.970269 5 4 ack 40 ------- 0 5.0 0.0 18 95
h 1.970269 4 6 ack 40 ------- 0 5.0 0.0 18 95
r 1.976269 6 4 tcp 1040 ------- 0 0.0 5.0 25 70
+ 1.976269 4 5 tcp 1040 ------- 0 0.0 5.0 25 70
- 1.976269 4 5 tcp 1040 ------- 0 0.0 5.0 20 65
r 1.976286 6 4 tcp 1040 ------- 0 0.0 5.0 26 71
+ 1.976286 4 5 tcp 1040 ------- 0 0.0 5.0 26 71
r 1.977269 4 5 tcp 1040 ------- 0 0.0 5.0 19 64
+ 1.977269 5 4 ack 40 ------- 0 5.0 0.0 19 96
- 1.977269 5 4 ack 40 ------- 0 5.0 0.0 19 96
r 1.978589 5 4 ack 40 ------- 0 5.0 0.0 19 96
h 1.978589 4 6 ack 40 ------- 0 5.0 0.0 19 96
r 1.984589 6 4 tcp 1040 ------- 0 0.0 5.0 27 72
+ 1.984589 4 5 tcp 1040 ------- 0 0.0 5.0 27 72
- 1.984589 4 5 tcp 1040 ------- 0 0.0 5.0 21 66
r 1.984606 6 4 tcp 1040 ------- 0 0.0 5.0 28 73
+ 1.984606 4 5 tcp 1040 ------- 0 0.0 5.0 28 73
r 1.985589 4 5 tcp 1040 ------- 0 0.0 5.0 20 65
+ 1.985589 5 4 ack 40 ------- 0 5.0 0.0 20 97
- 1.985589 5 4 ack 40 ------- 0 5.0 0.0 20 97
r 1.986909 5 4 ack 40 ------- 0 5.0 0.0 20 97
h 1.986909 4 6 ack 40 ------- 0 5.0 0.0 20 97
r 1.992909 6 4 tcp 1040 ------- 0 0.0 5.0 29 74
+ 1.992909 4 5 tcp 1040 ------- 0 0.0 5.0 29 74
- 1.992909 4 5 tcp 1040 ------- 0 0.0 5.0 22 67
r 1.992926 6 4 tcp 1040 ------- 0 0.0 5.0 30 75
+ 1.992926 4 5 tcp 1040 ------- 0 0.0 5.0 30 75
r 1.993909 4 5 tcp 1040 ------- 0 0.0 5.0 21 66
+ 1.993909 5 4 ack 40 ------- 0 5.0 0.0 21 98
- 1.993909 5 4 ack 40 ------- 0 5.0 0.0 21 98
r 1.995229 5 4 ack 40 ------- 0 5.0 0.0 21 98
h 1.995229 4 6 ack 40 ------- 0 5.0 0.0 21 98
r 2.000109 6 3 tcp 1040 ------- 0 2.0 3.0 15 76
h 2.000109 3 6 ack 40 ------- 0 3.0 2.0 15 99
r 2.000126 6 3 tcp 1040 ------- 0 2.0 3.0 16 77
h 2.000126 3 6 ack 40 ------- 0 3.0 2.0 16 100
r 2.000143 6 3 tcp 1040 ------- 0 2.0 3.0 17 78
h 2.000143 3 6 ack 40 ------- 0 3.0 2.0 17 101
r 2.00016 6 3 tcp 1040 ------- 0 2.0 3.0 18 79
h 2.00016 3 6 ack 40 ------- 0 3.0 2.0 18 102
r 2.000177 6 3 tcp 1040 ------- 0 2.0 3.0 19 80
h 2.000177 3 6 ack 40 ------- 0 3.0 2.0 19 103
r 2.000194 6 3 tcp 1040 ------- 0 2.0 3.0 20 81
h 2.000194 3 6 ack 40 ------- 0 3.0 2.0 20 104
r 2.000211 6 3 tcp 1040 ------- 0 2.0 3.0 21 82
h 2.000211 3 6 ack 40 ------- 0 3.0 2.0 21 105
r 2.000228 6 3 tcp 1040 ------- 0 2.0 3.0 22 83
h 2.000228 3 6 ack 40 ------- 0 3.0 2.0 22 106
r 2.000245 6 3 tcp 1040 ------- 0 2.0 3.0 23 84
h 2.000245 3 6 ack 40 ------- 0 3.0 2.0 23 107
r 2.000262 6 3 tcp 1040 ------- 0 2.0 3.0 24 85
h 2.000262 3 6 ack 40 ------- 0 3.0 2.0 24 108
r 2.000279 6 3 tcp 1040 ------- 0 2.0 3.0 25 86
h 2.000279 3 6 ack 40 ------- 0 3.0 2.0 25 109
r 2.000296 6 3 tcp 1040 ------- 0 2.0 3.0 26 87
h 2.000296 3 6 ack 40 ------- 0 3.0 2.0 26 110
r 2.000313 6 3 tcp 1040 ------- 0 2.0 3.0 27 88
h 2.000313 3 6 ack 40 ------- 0 3.0 2.0 27 111
r 2.00033 6 3 tcp 1040 ------- 0 2.0 3.0 28 89
h 2.00033 3 6 ack 40 ------- 0 3.0 2.0 28 112
r 2.000347 6 3 tcp 1040 ------- 0 2.0 3.0 29 90
h 2.000347 3 6 ack 40 ------- 0 3.0 2.0 29 113
r 2.000364 6 3 tcp 1040 ------- 0 2.0 3.0 30 91
h 2.000364 3 6 ack 40 ------- 0 3.0 2.0 30 114
- 2.001229 4 5 tcp 1040 ------- 0 0.0 5.0 23 68
r 2.002229 4 5 tcp 1040 ------- 0 0.0 5.0 22 67
+ 2.002229 5 4 ack 40 ------- 0 5.0 0.0 22 115
- 2.002229 5 4 ack 40 ------- 0 5.0 0.0 22 115
r 2.003549 5 4 ack 40 ------- 0 5.0 0.0 22 115
h 2.003549 4 6 ack 40 ------- 0 5.0 0.0 22 115
- 2.009549 4 5 tcp 1040 ------- 0 0.0 5.0 24 69
r 2.010549 4 5 tcp 1040 ------- 0 0.0 5.0 23 68
+ 2.010549 5 4 ack 40 ------- 0 5.0 0.0 23 116
- 2.010549 5 4 ack 40 ------- 0 5.0 0.0 23 116
r 2.011869 5 4 ack 40 ------- 0 5.0 0.0 23 116
h 2.011869 4 6 ack 40 ------- 0 5.0 0.0 23 116
- 2.017869 4 5 tcp 1040 ------- 0 0.0 5.0 25 70
r 2.018869 4 5 tcp 1040 ------- 0 0.0 5.0 24 69
+ 2.018869 5 4 ack 40 ------- 0 5.0 0.0 24 117
- 2.018869 5 4 ack 40 ------- 0 5.0 0.0 24 117
r 2.020189 5 4 ack 40 ------- 0 5.0 0.0 24 117
h 2.020189 4 6 ack 40 ------- 0 5.0 0.0 24 117
- 2.026189 4 5 tcp 1040 ------- 0 0.0 5.0 26 71
r 2.027189 4 5 tcp 1040 ------- 0 0.0 5.0 25 70
+ 2.027189 5 4 ack 40 ------- 0 5.0 0.0 25 118
- 2.027189 5 4 ack 40 ------- 0 5.0 0.0 25 118
r 2.028509 5 4 ack 40 ------- 0 5.0 0.0 25 118
h 2.028509 4 6 ack 40 ------- 0 5.0 0.0 25 118
- 2.034509 4 5 tcp 1040 ------- 0 0.0 5.0 27 72
r 2.035509 4 5 tcp 1040 ------- 0 0.0 5.0 26 71
+ 2.035509 5 4 ack 40 ------- 0 5.0 0.0 26 119
- 2.035509 5 4 ack 40 ------- 0 5.0 0.0 26 119
r 2.036829 5 4 ack 40 ------- 0 5.0 0.0 26 119
h 2.036829 4 6 ack 40 ------- 0 5.0 0.0 26 119
- 2.042829 4 5 tcp 1040 ------- 0 0.0 5.0 28 73
r 2.043829 4 5 tcp 1040 ------- 0 0.0 5.0 27 72
+ 2.043829 5 4 ack 40 ------- 0 5.0 0.0 27 120
- 2.043829 5 4 ack 40 ------- 0 5.0 0.0 27 120
r 2.045149 5 4 ack 40 ------- 0 5.0 0.0 27 120
h 2.045149 4 6 ack 40 ------- 0 5.0 0.0 27 120
+ 2.045309 4 6 ack 40 ------- 0 5.0 0.0 15 92
- 2.045309 4 6 ack 40 ------- 0 5.0 0.0 15 92
- 2.051149 4 5 tcp 1040 ------- 0 0.0 5.0 29 74
r 2.052149 4 5 tcp 1040 ------- 0 0.0 5.0 28 73
+ 2.052149 5 4 ack 40 ------- 0 5.0 0.0 28 121
- 2.052149 5 4 ack 40 ------- 0 5.0 0.0 28 121
r 2.053469 5 4 ack 40 ------- 0 5.0 0.0 28 121
h 2.053469 4 6 ack 40 ------- 0 5.0 0.0 28 121
+ 2.053629 4 6 ack 40 ------- 0 5.0 0.0 16 93
- 2.053629 4 6 ack 40 ------- 0 5.0 0.0 16 93
- 2.059469 4 5 tcp 1040 ------- 0 0.0 5.0 30 75
r 2.060469 4 5 tcp 1040 ------- 0 0.0 5.0 29 74
+ 2.060469 5 4 ack 40 ------- 0 5.0 0.0 29 122
- 2.060469 5 4 ack 40 ------- 0 5.0 0.0 29 122
r 2.061789 5 4 ack 40 ------- 0 5.0 0.0 29 122
h 2.061789 4 6 ack 40 ------- 0 5.0 0.0 29 122
+ 2.061949 4 6 ack 40 ------- 0 5.0 0.0 17 94
- 2.061949 4 6 ack 40 ------- 0 5.0 0.0 17 94
r 2.068789 4 5 tcp 1040 ------- 0 0.0 5.0 30 75
+ 2.068789 5 4 ack 40 ------- 0 5.0 0.0 30 123
- 2.068789 5 4 ack 40 ------- 0 5.0 0.0 30 123
r 2.070109 5 4 ack 40 ------- 0 5.0 0.0 30 123
h 2.070109 4 6 ack 40 ------- 0 5.0 0.0 30 123
+ 2.070269 4 6 ack 40 ------- 0 5.0 0.0 18 95
- 2.070269 4 6 ack 40 ------- 0 5.0 0.0 18 95
+ 2.078589 4 6 ack 40 ------- 0 5.0 0.0 19 96
- 2.078589 4 6 ack 40 ------- 0 5.0 0.0 19 96
+ 2.086909 4 6 ack 40 ------- 0 5.0 0.0 20 97
- 2.086909 4 6 ack 40 ------- 0 5.0 0.0 20 97
+ 2.095229 4 6 ack 40 ------- 0 5.0 0.0 21 98
- 2.095229 4 6 ack 40 ------- 0 5.0 0.0 21 98
+ 2.100109 3 6 ack 40 ------- 0 3.0 2.0 15 99
- 2.100109 3 6 ack 40 ------- 0 3.0 2.0 15 99
+ 2.100126 3 6 ack 40 ------- 0 3.0 2.0 16 100
- 2.100126 3 6 ack 40 ------- 0 3.0 2.0 16 100
+ 2.100143 3 6 ack 40 ------- 0 3.0 2.0 17 101
- 2.100143 3 6 ack 40 ------- 0 3.0 2.0 17 101
+ 2.10016 3 6 ack 40 ------- 0 3.0 2.0 18 102
- 2.10016 3 6 ack 40 ------- 0 3.0 2.0 18 102
+ 2.100177 3 6 ack 40 ------- 0 3.0 2.0 19 103
- 2.100177 3 6 ack 40 ------- 0 3.0 2.0 19 103
+ 2.100194 3 6 ack 40 ------- 0 3.0 2.0 20 104
- 2.100194 3 6 ack 40 ------- 0 3.0 2.0 20 104
+ 2.100211 3 6 ack 40 ------- 0 3.0 2.0 21 105
- 2.100211 3 6 ack 40 ------- 0 3.0 2.0 21 105
+ 2.100228 3 6 ack 40 ------- 0 3.0 2.0 22 106
- 2.100228 3 6 ack 40 ------- 0 3.0 2.0 22 106
+ 2.100245 3 6 ack 40 ------- 0 3.0 2.0 23 107
- 2.100245 3 6 ack 40 ------- 0 3.0 2.0 23 107
+ 2.100262 3 6 ack 40 ------- 0 3.0 2.0 24 108
- 2.100262 3 6 ack 40 ------- 0 3.0 2.0 24 108
+ 2.100279 3 6 ack 40 ------- 0 3.0 2.0 25 109
- 2.100279 3 6 ack 40 ------- 0 3.0 2.0 25 109
+ 2.100296 3 6 ack 40 ------- 0 3.0 2.0 26 110
- 2.100296 3 6 ack 40 ------- 0 3.0 2.0 26 110
+ 2.100313 3 6 ack 40 ------- 0 3.0 2.0 27 111
- 2.100313 3 6 ack 40 ------- 0 3.0 2.0 27 111
+ 2.10033 3 6 ack 40 ------- 0 3.0 2.0 28 112
- 2.10033 3 6 ack 40 ------- 0 3.0 2.0 28 112
+ 2.100347 3 6 ack 40 ------- 0 3.0 2.0 29 113
- 2.100347 3 6 ack 40 ------- 0 3.0 2.0 29 113
+ 2.100364 3 6 ack 40 ------- 0 3.0 2.0 30 114
- 2.100364 3 6 ack 40 ------- 0 3.0 2.0 30 114
+ 2.103549 4 6 ack 40 ------- 0 5.0 0.0 22 115
- 2.103549 4 6 ack 40 ------- 0 5.0 0.0 22 115
+ 2.111869 4 6 ack 40 ------- 0 5.0 0.0 23 116
- 2.111869 4 6 ack 40 ------- 0 5.0 0.0 23 116
+ 2.120189 4 6 ack 40 ------- 0 5.0 0.0 24 117
- 2.120189 4 6 ack 40 ------- 0 5.0 0.0 24 117
+ 2.128509 4 6 ack 40 ------- 0 5.0 0.0 25 118
- 2.128509 4 6 ack 40 ------- 0 5.0 0.0 25 118
+ 2.136829 4 6 ack 40 ------- 0 5.0 0.0 26 119
- 2.136829 4 6 ack 40 ------- 0 5.0 0.0 26 119
+ 2.145149 4 6 ack 40 ------- 0 5.0 0.0 27 120