n -t 0 -s 0 -S DLABEL -l "src1" -L ""
n -t 0 -s 2 -S DLABEL -l "src2" -L ""
n -t 0 -s 3 -S DLABEL -l "dest2" -L ""
n -t 0 -s 5 -S DLABEL -l "dest1" -L ""
V -t * -v 1.0a5 -a 0
A -t * -n 1 -p 0 -o 0x7fffffff -c 30 -a 1
A -t * -h 1 -m 1073741823 -s 0
n -t * -a 4 -s 4 -S UP -v square -c black -i black
n -t * -a 0 -s 0 -S UP -v circle -c magenta -i magenta
n -t * -a 5 -s 5 -S UP -v circle -c blue -i blue
n -t * -a 1 -s 1 -S UP -v circle -c red -i red
n -t * -a 2 -s 2 -S UP -v circle -c magenta -i magenta
n -t * -a 3 -s 3 -S UP -v circle -c blue -i blue
l -t * -s 4 -d 5 -S UP -r 1000000 -D 0.001 -c black -o right
X -t * -n 6 -r 500Mb -D 100ms -o left
L -t * -s 6 -d 0 -o up
L -t * -s 6 -d 1 -o down
L -t * -s 6 -d 2 -o up
L -t * -s 6 -d 3 -o down
L -t * -s 6 -d 4 -o up
h -t 0.1 -s 0 -d 6 -p tcp -e 40 -c 0 -i 0 -a 0 -x {0.0 5.0 0 ------- null}
h -t 0.2 -s 2 -d 6 -p tcp -e 40 -c 0 -i 1 -a 0 -x {2.0 3.0 0 ------- null}
+ -t 0.2 -s 0 -d 6 -p tcp -e 40 -c 0 -i 0 -a 0 -x {0.0 5.0 0 ------- null}
- -t 0.2 -s 0 -d 6 -p tcp -e 40 -c 0 -i 0 -a 0 -x {0.0 5.0 0 ------- null}
h -t 0.2 -s 0 -d 6 -p tcp -e 40 -c 0 -i 0 -a 0 -x {0.0 5.0 -1 ------- null}
+ -t 0.3 -s 2 -d 6 -p tcp -e 40 -c 0 -i 1 -a 0 -x {2.0 3.0 0 ------- null}
- -t 0.3 -s 2 -d 6 -p tcp -e 40 -c 0 -i 1 -a 0 -x {2.0 3.0 0 ------- null}
h -t 0.3 -s 2 -d 6 -p tcp -e 40 -c 0 -i 1 -a 0 -x {2.0 3.0 -1 ------- null}
r -t 0.300005024 -s 6 -d 4 -p tcp -e 40 -c 0 -i 0 -a 0 -x {0.0 5.0 0 ------- null}
+ -t 0.300005024 -s 4 -d 5 -p tcp -e 40 -c 0 -i 0 -a 0 -x {0.0 5.0 0 ------- null}
- -t 0.300005024 -s 4 -d 5 -p tcp -e 40 -c 0 -i 0 -a 0 -x {0.0 5.0 0 ------- null}
h -t 0.300005024 -s 4 -d 5 -p tcp -e 40 -c 0 -i 0 -a 0 -x {0.0 5.0 -1 ------- null}
r -t 0.301325024 -s 4 -d 5 -p tcp -e 40 -c 0 -i 0 -a 0 -x {0.0 5.0 0 ------- null}
+ -t 0.301325024 -s 5 -d 4 -p ack -e 40 -c 0 -i 2 -a 0 -x {5.0 0.0 0 ------- null}
- -t 0.301325024 -s 5 -d 4 -p ack -e 40 -c 0 -i 2 -a 0 -x {5.0 0.0 0 ------- null}
h -t 0.301325024 -s 5 -d 4 -p ack -e 40 -c 0 -i 2 -a 0 -x {5.0 0.0 -1 ------- null}
r -t 0.302645024 -s 5 -d 4 -p ack -e 40 -c 0 -i 2 -a 0 -x {5.0 0.0 0 ------- null}
h -t 0.302645024 -s 4 -d 6 -p ack -e 40 -c 0 -i 2 -a 0 -x {5.0 0.0 0 ------- null}
r -t 0.400005024 -s 6 -d 3 -p tcp -e 40 -c 0 -i 1 -a 0 -x {2.0 3.0 0 ------- null}
h -t 0.400005024 -s 3 -d 6 -p ack -e 40 -c 0 -i 3 -a 0 -x {3.0 2.0 0 ------- null}
+ -t 0.402645024 -s 4 -d 6 -p ack -e 40 -c 0 -i 2 -a 0 -x {5.0 0.0 0 ------- null}
- -t 0.402645024 -s 4 -d 6 -p ack -e 40 -c 0 -i 2 -a 0 -x {5.0 0.0 0 ------- null}
h -t 0.402645024 -s 4 -d 6 -p ack -e 40 -c 0 -i 2 -a 0 -x {5.0 0.0 -1 ------- null}
+ -t 0.500005024 -s 3 -d 6 -p ack -e 40 -c 0 -i 3 -a 0 -x {3.0 2.0 0 ------- null}
- -t 0.500005024 -s 3 -d 6 -p ack -e 40 -c 0 -i 3 -a 0 -x {3.0 2.0 0 ------- null}
h -t 0.500005024 -s 3 -d 6 -p ack -e 40 -c 0 -i 3 -a 0 -x {3.0 2.0 -1 ------- null}
r -t 0.502650048 -s 6 -d 0 -p ack -e 40 -c 0 -i 2 -a 0 -x {5.0 0.0 0 ------- null}
h -t 0.502650048 -s 0 -d 6 -p tcp -e 1040 -c 0 -i 4 -a 0 -x {0.0 5.0 1 ------- null}
h -t 0.502650048 -s 0 -d 6 -p tcp -e 1040 -c 0 -i 5 -a 0 -x {0.0 5.0 2 ------- null}
r -t 0.600010048 -s 6 -d 2 -p ack -e 40 -c 0 -i 3 -a 0 -x {3.0 2.0 0 ------- null}
h -t 0.600010048 -s 2 -d 6 -p tcp -e 1040 -c 0 -i 6 -a 0 -x {2.0 3.0 1 ------- null}
h -t 0.600010048 -s 2 -d 6 -p tcp -e 1040 -c 0 -i 7 -a 0 -x {2.0 3.0 2 ------- null}
+ -t 0.602650048 -s 0 -d 6 -p tcp -e 1040 -c 0 -i 4 -a 0 -x {0.0 5.0 1 ------- null}
- -t 0.602650048 -s 0 -d 6 -p tcp -e 1040 -c 0 -i 4 -a 0 -x {0.0 5.0 1 ------- null}
h -t 0.602650048 -s 0 -d 6 -p tcp -e 1040 -c 0 -i 4 -a 0 -x {0.0 5.0 -1 ------- null}
+ -t 0.602650048 -s 0 -d 6 -p tcp -e 1040 -c 0 -i 5 -a 0 -x {0.0 5.0 2 ------- null}
- -t 0.602667104 -s 0 -d 6 -p tcp -e 1040 -c 0 -i 5 -a 0 -x {0.0 5.0 2 ------- null}
h -t 0.602667104 -s 0 -d 6 -p tcp -e 1040 -c 0 -i 5 -a 0 -x {0.0 5.0 -1 ------- null}
+ -t 0.700010048 -s 2 -d 6 -p tcp -e 1040 -c 0 -i 6 -a 0 -x {2.0 3.0 1 ------- null}
- -t 0.700010048 -s 2 -d 6 -p tcp -e 1040 -c 0 -i 6 -a 0 -x {2.0 3.0 1 ------- null}
h -t 0.700010048 -s 2 -d 6 -p tcp -e 1040 -c 0 -i 6 -a 0 -x {2.0 3.0 -1 ------- null}
+ -t 0.700010048 -s 2 -d 6 -p tcp -e 1040 -c 0 -i 7 -a 0 -x {2.0 3.0 2 ------- null}
- -t 0.700027104 -s 2 -d 6 -p tcp -e 1040 -c 0 -i 7 -a 0 -x {2.0 3.0 2 ------- null}
h -t 0.700027104 -s 2 -d 6 -p tcp -e 1040 -c 0 -i 7 -a 0 -x {2.0 3.0 -1 ------- null}
r -t 0.702670912 -s 6 -d 4 -p tcp -e 1040 -c 0 -i 4 -a 0 -x {0.0 5.0 1 ------- null}
+ -t 0.702670912 -s 4 -d 5 -p tcp -e 1040 -c 0 -i 4 -a 0 -x {0.0 5.0 1 ------- null}
- -t 0.702670912 -s 4 -d 5 -p tcp -e 1040 -c 0 -i 4 -a 0 -x {0.0 5.0 1 ------- null}
h -t 0.702670912 -s 4 -d 5 -p tcp -e 1040 -c 0 -i 4 -a 0 -x {0.0 5.0 -1 ------- null}
r -t 0.702687968 -s 6 -d 4 -p tcp -e 1040 -c 0 -i 5 -a 0 -x {0.0 5.0 2 ------- null}
+ -t 0.702687968 -s 4 -d 5 -p tcp -e 1040 -c 0 -i 5 -a 0 -x {0.0 5.0 2 ------- null}
- -t 0.710990912 -s 4 -d 5 -p tcp -e 1040 -c 0 -i 5 -a 0 -x {0.0 5.0 2 ------- null}
h -t 0.710990912 -s 4 -d 5 -p tcp -e 1040 -c 0 -i 5 -a 0 -x {0.0 5.0 -1 ------- null}
r -t 0.711990912 -s 4 -d 5 -p tcp -e 1040 -c 0 -i 4 -a 0 -x {0.0 5.0 1 ------- null}
+ -t 0.711990912 -s 5 -d 4 -p ack -e 40 -c 0 -i 8 -a 0 -x {5.0 0.0 1 ------- null}
- -t 0.711990912 -s 5 -d 4 -p ack -e 40 -c 0 -i 8 -a 0 -x {5.0 0.0 1 ------- null}
h -t 0.711990912 -s 5 -d 4 -p ack -e 40 -c 0 -i 8 -a 0 -x {5.0 0.0 -1 ------- null}
r -t 0.713310912 -s 5 -d 4 -p ack -e 40 -c 0 -i 8 -a 0 -x {5.0 0.0 1 ------- null}
h -t 0.713310912 -s 4 -d 6 -p ack -e 40 -c 0 -i 8 -a 0 -x {5.0 0.0 1 ------- null}
r -t 0.720310912 -s 4 -d 5 -p tcp -e 1040 -c 0 -i 5 -a 0 -x {0.0 5.0 2 ------- null}
+ -t 0.720310912 -s 5 -d 4 -p ack -e 40 -c 0 -i 9 -a 0 -x {5.0 0.0 2 ------- null}
- -t 0.720310912 -s 5 -d 4 -p ack -e 40 -c 0 -i 9 -a 0 -x {5.0 0.0 2 ------- null}
h -t 0.720310912 -s 5 -d 4 -p ack -e 40 -c 0 -i 9 -a 0 -x {5.0 0.0 -1 ------- null}
r -t 0.721630912 -s 5 -d 4 -p ack -e 40 -c 0 -i 9 -a 0 -x {5.0 0.0 2 ------- null}
h -t 0.721630912 -s 4 -d 6 -p ack -e 40 -c 0 -i 9 -a 0 -x {5.0 0.0 2 ------- null}
r -t 0.800030912 -s 6 -d 3 -p tcp -e 1040 -c 0 -i 6 -a 0 -x {2.0 3.0 1 ------- null}
h -t 0.800030912 -s 3 -d 6 -p ack -e 40 -c 0 -i 10 -a 0 -x {3.0 2.0 1 ------- null}
r -t 0.800047968 -s 6 -d 3 -p tcp -e 1040 -c 0 -i 7 -a 0 -x {2.0 3.0 2 ------- null}
h -t 0.800047968 -s 3 -d 6 -p ack -e 40 -c 0 -i 11 -a 0 -x {3.0 2.0 2 ------- null}
+ -t 0.813310912 -s 4 -d 6 -p ack -e 40 -c 0 -i 8 -a 0 -x {5.0 0.0 1 ------- null}
- -t 0.813310912 -s 4 -d 6 -p ack -e 40 -c 0 -i 8 -a 0 -x {5.0 0.0 1 ------- null}
h -t 0.813310912 -s 4 -d 6 -p ack -e 40 -c 0 -i 8 -a 0 -x {5.0 0.0 -1 ------- null}
+ -t 0.821630912 -s 4 -d 6 -p ack -e 40 -c 0 -i 9 -a 0 -x {5.0 0.0 2 ------- null}
- -t 0.821630912 -s 4 -d 6 -p ack -e 40 -c 0 -i 9 -a 0 -x {5.0 0.0 2 ------- null}
h -t 0.821630912 -s 4 -d 6 -p ack -e 40 -c 0 -i 9 -a 0 -x {5.0 0.0 -1 ------- null}
+ -t 0.900030912 -s 3 -d 6 -p ack -e 40 -c 0 -i 10 -a 0 -x {3.0 2.0 1 ------- null}
- -t 0.900030912 -s 3 -d 6 -p ack -e 40 -c 0 -i 10 -a 0 -x {3.0 2.0 1 ------- null}
h -t 0.900030912 -s 3 -d 6 -p ack -e 40 -c 0 -i 10 -a 0 -x {3.0 2.0 -1 ------- null}
+ -t 0.900047968 -s 3 -d 6 -p ack -e 40 -c 0 -i 11 -a 0 -x {3.0 2.0 2 ------- null}
- -t 0.900047968 -s 3 -d 6 -p ack -e 40 -c 0 -i 11 -a 0 -x {3.0 2.0 2 ------- null}
h -t 0.900047968 -s 3 -d 6 -p ack -e 40 -c 0 -i 11 -a 0 -x {3.0 2.0 -1 ------- null}
r -t 0.913315936 -s 6 -d 0 -p ack -e 40 -c 0 -i 8 -a 0 -x {5.0 0.0 1 ------- null}
h -t 0.913315936 -s 0 -d 6 -p tcp -e 1040 -c 0 -i 12 -a 0 -x {0.0 5.0 3 ------- null}
h -t 0.913315936 -s 0 -d 6 -p tcp -e 1040 -c 0 -i 13 -a 0 -x {0.0 5.0 4 ------- null}
r -t 0.921635936 -s 6 -d 0 -p ack -e 40 -c 0 -i 9 -a 0 -x {5.0 0.0 2 ------- null}
h -t 0.921635936 -s 0 -d 6 -p tcp -e 1040 -c 0 -i 14 -a 0 -x {0.0 5.0 5 ------- null}
h -t 0.921635936 -s 0 -d 6 -p tcp -e 1040 -c 0 -i 15 -a 0 -x {0.0 5.0 6 ------- null}
r -t 1.000035936 -s 6 -d 2 -p ack -e 40 -c 0 -i 10 -a 0 -x {3.0 2.0 1 ------- null}
h -t 1.000035936 -s 2 -d 6 -p tcp -e 1040 -c 0 -i 16 -a 0 -x {2.0 3.0 3 ------- null}
h -t 1.000035936 -s 2 -d 6 -p tcp -e 1040 -c 0 -i 17 -a 0 -x {2.0 3.0 4 ------- null}
r -t 1.000052992 -s 6 -d 2 -p ack -e 40 -c 0 -i 11 -a 0 -x {3.0 2.0 2 ------- null}
h -t 1.000052992 -s 2 -d 6 -p tcp -e 1040 -c 0 -i 18 -a 0 -x {2.0 3.0 5 ------- null}
h -t 1.000052992 -s 2 -d 6 -p tcp -e 1040 -c 0 -i 19 -a 0 -x {2.0 3.0 6 ------- null}
+ -t 1.013315936 -s 0 -d 6 -p tcp -e 1040 -c 0 -i 12 -a 0 -x {0.0 5.0 3 ------- null}
- -t 1.013315936 -s 0 -d 6 -p tcp -e 1040 -c 0 -i 12 -a 0 -x {0.0 5.0 3 ------- null}
h -t 1.013315936 -s 0 -d 6 -p tcp -e 1040 -c 0 -i 12 -a 0 -x {0.0 5.0 -1 ------- null}
+ -t 1.013315936 -s 0 -d 6 -p tcp -e 1040 -c 0 -i 13 -a 0 -x {0.0 5.0 4 ------- null}
- -t 1.013332992 -s 0 -d 6 -p tcp -e 1040 -c 0 -i 13 -a 0 -x {0.0 5.0 4 ------- null}
h -t 1.013332992 -s 0 -d 6 -p tcp -e 1040 -c 0 -i 13 -a 0 -x {0.0 5.0 -1 ------- null}
+ -t 1.021635936 -s 0 -d 6 -p tcp -e 1040 -c 0 -i 14 -a 0 -x {0.0 5.0 5 ------- null}
- -t 1.021635936 -s 0 -d 6 -p tcp -e 1040 -c 0 -i 14 -a 0 -x {0.0 5.0 5 ------- null}
h -t 1.021635936 -s 0 -d 6 -p tcp -e 1040 -c 0 -i 14 -a 0 -x {0.0 5.0 -1 ------- null}
+ -t 1.021635936 -s 0 -d 6 -p tcp -e 1040 -c 0 -i 15 -a 0 -x {0.0 5.0 6 ------- null}
- -t 1.021652992 -s 0 -d 6 -p tcp -e 1040 -c 0 -i 15 -a 0 -x {0.0 5.0 6 ------- null}
h -t 1.021652992 -s 0 -d 6 -p tcp -e 1040 -c 0 -i 15 -a 0 -x {0.0 5.0 -1 ------- null}
+ -t 1.100035936 -s 2 -d 6 -p tcp -e 1040 -c 0 -i 16 -a 0 -x {2.0 3.0 3 ------- null}
- -t 1.100035936 -s 2 -d 6 -p tcp -e 1040 -c 0 -i 16 -a 0 -x {2.0 3.0 3 ------- null}
h -t 1.100035936 -s 2 -d 6 -p tcp -e 1040 -c 0 -i 16 -a 0 -x {2.0 3.0 -1 ------- null}
+ -t 1.100035936 -s 2 -d 6 -p tcp -e 1040 -c 0 -i 17 -a 0 -x {2.0 3.0 4 ------- null}
- -t 1.100052992 -s 2 -d 6 -p tcp -e 1040 -c 0 -i 17 -a 0 -x {2.0 3.0 4 ------- null}
h -t 1.100052992 -s 2 -d 6 -p tcp -e 1040 -c 0 -i 17 -a 0 -x {2.0 3.0 -1 ------- null}
+ -t 1.100052992 -s 2 -d 6 -p tcp -e 1040 -c 0 -i 18 -a 0 -x {2.0 3.0 5 ------- null}
+ -t 1.100052992 -s 2 -d 6 -p tcp -e 1040 -c 0 -i 19 -a 0 -x {2.0 3.0 6 ------- null}
- -t 1.100070048 -s 2 -d 6 -p tcp -e 1040 -c 0 -i 18 -a 0 -x {2.0 3.0 5 ------- null}
h -t 1.100070048 -s 2 -d 6 -p tcp -e 1040 -c 0 -i 18 -a 0 -x {2.0 3.0 -1 ------- null}
- -t 1.100087104 -s 2 -d 6 -p tcp -e 1040 -c 0 -i 19 -a 0 -x {2.0 3.0 6 ------- null}
h -t 1.100087104 -s 2 -d 6 -p tcp -e 1040 -c 0 -i 19 -a 0 -x {2.0 3.0 -1 ------- null}
r -t 1.1133368 -s 6 -d 4 -p tcp -e 1040 -c 0 -i 12 -a 0 -x {0.0 5.0 3 ------- null}
+ -t 1.1133368 -s 4 -d 5 -p tcp -e 1040 -c 0 -i 12 -a 0 -x {0.0 5.0 3 ------- null}
- -t 1.1133368 -s 4 -d 5 -p tcp -e 1040 -c 0 -i 12 -a 0 -x {0.0 5.0 3 ------- null}
h -t 1.1133368 -s 4 -d 5 -p tcp -e 1040 -c 0 -i 12 -a 0 -x {0.0 5.0 -1 ------- null}
r -t 1.113353856 -s 6 -d 4 -p tcp -e 1040 -c 0 -i 13 -a 0 -x {0.0 5.0 4 ------- null}
+ -t 1.113353856 -s 4 -d 5 -p tcp -e 1040 -c 0 -i 13 -a 0 -x {0.0 5.0 4 ------- null}
r -t 1.1216568 -s 6 -d 4 -p tcp -e 1040 -c 0 -i 14 -a 0 -x {0.0 5.0 5 ------- null}
+ -t 1.1216568 -s 4 -d 5 -p tcp -e 1040 -c 0 -i 14 -a 0 -x {0.0 5.0 5 ------- null}
- -t 1.1216568 -s 4 -d 5 -p tcp -e 1040 -c 0 -i 13 -a 0 -x {0.0 5.0 4 ------- null}
h -t 1.1216568 -s 4 -d 5 -p tcp -e 1040 -c 0 -i 13 -a 0 -x {0.0 5.0 -1 ------- null}
r -t 1.121673856 -s 6 -d 4 -p tcp -e 1040 -c 0 -i 15 -a 0 -x {0.0 5.0 6 ------- null}
+ -t 1.121673856 -s 4 -d 5 -p tcp -e 1040 -c 0 -i 15 -a 0 -x {0.0 5.0 6 ------- null}
r -t 1.1226568 -s 4 -d 5 -p tcp -e 1040 -c 0 -i 12 -a 0 -x {0.0 5.0 3 ------- null}
+ -t 1.1226568 -s 5 -d 4 -p ack -e 40 -c 0 -i 20 -a 0 -x {5.0 0.0 3 ------- null}
- -t 1.1226568 -s 5 -d 4 -p ack -e 40 -c 0 -i 20 -a 0 -x {5.0 0.0 3 ------- null}
h -t 1.1226568 -s 5 -d 4 -p ack -e 40 -c 0 -i 20 -a 0 -x {5.0 0.0 -1 ------- null}
r -t 1.1239768 -s 5 -d 4 -p ack -e 40 -c 0 -i 20 -a 0 -x {5.0 0.0 3 ------- null}
h -t 1.1239768 -s 4 -d 6 -p ack -e 40 -c 0 -i 20 -a 0 -x {5.0 0.0 3 ------- null}
- -t 1.1299768 -s 4 -d 5 -p tcp -e 1040 -c 0 -i 14 -a 0 -x {0.0 5.0 5 ------- null}
h -t 1.1299768 -s 4 -d 5 -p tcp -e 1040 -c 0 -i 14 -a 0 -x {0.0 5.0 -1 ------- null}
r -t 1.1309768 -s 4 -d 5 -p tcp -e 1040 -c 0 -i 13 -a 0 -x {0.0 5.0 4 ------- null}
+ -t 1.1309768 -s 5 -d 4 -p ack -e 40 -c 0 -i 21 -a 0 -x {5.0 0.0 4 ------- null}
- -t 1.1309768 -s 5 -d 4 -p ack -e 40 -c 0 -i 21 -a 0 -x {5.0 0.0 4 ------- null}
h -t 1.1309768 -s 5 -d 4 -p ack -e 40 -c 0 -i 21 -a 0 -x {5.0 0.0 -1 ------- null}
r -t 1.1322968 -s 5 -d 4 -p ack -e 40 -c 0 -i 21 -a 0 -x {5.0 0.0 4 ------- null}
h -t 1.1322968 -s 4 -d 6 -p ack -e 40 -c 0 -i 21 -a 0 -x {5.0 0.0 4 ------- null}
- -t 1.1382968 -s 4 -d 5 -p tcp -e 1040 -c 0 -i 15 -a 0 -x {0.0 5.0 6 ------- null}
h -t 1.1382968 -s 4 -d 5 -p tcp -e 1040 -c 0 -i 15 -a 0 -x {0.0 5.0 -1 ------- null}
r -t 1.1392968 -s 4 -d 5 -p tcp -e 1040 -c 0 -i 14 -a 0 -x {0.0 5.0 5 ------- null}
+ -t 1.1392968 -s 5 -d 4 -p ack -e 40 -c 0 -i 22 -a 0 -x {5.0 0.0 5 ------- null}
- -t 1.1392968 -s 5 -d 4 -p ack -e 40 -c 0 -i 22 -a 0 -x {5.0 0.0 5 ------- null}
h -t 1.1392968 -s 5 -d 4 -p ack -e 40 -c 0 -i 22 -a 0 -x {5.0 0.0 -1 ------- null}
r -t 1.1406168 -s 5 -d 4 -p ack -e 40 -c 0 -i 22 -a 0 -x {5.0 0.0 5 ------- null}
h -t 1.1406168 -s 4 -d 6 -p ack -e 40 -c 0 -i 22 -a 0 -x {5.0 0.0 5 ------- null}
r -t 1.1476168 -s 4 -d 5 -p tcp -e 1040 -c 0 -i 15 -a 0 -x {0.0 5.0 6 ------- null}
+ -t 1.1476168 -s 5 -d 4 -p ack -e 40 -c 0 -i 23 -a 0 -x {5.0 0.0 6 ------- null}
- -t 1.1476168 -s 5 -d 4 -p ack -e 40 -c 0 -i 23 -a 0 -x {5.0 0.0 6 ------- null}
h -t 1.1476168 -s 5 -d 4 -p ack -e 40 -c 0 -i 23 -a 0 -x {5.0 0.0 -1 ------- null}
r -t 1.1489368 -s 5 -d 4 -p ack -e 40 -c 0 -i 23 -a 0 -x {5.0 0.0 6 ------- null}
h -t 1.1489368 -s 4 -d 6 -p ack -e 40 -c 0 -i 23 -a 0 -x {5.0 0.0 6 ------- null}
r -t 1.2000568 -s 6 -d 3 -p tcp -e 1040 -c 0 -i 16 -a 0 -x {2.0 3.0 3 ------- null}
h -t 1.2000568 -s 3 -d 6 -p ack -e 40 -c 0 -i 24 -a 0 -x {3.0 2.0 3 ------- null}
r -t 1.200073856 -s 6 -d 3 -p tcp -e 1040 -c 0 -i 17 -a 0 -x {2.0 3.0 4 ------- null}
h -t 1.200073856 -s 3 -d 6 -p ack -e 40 -c 0 -i 25 -a 0 -x {3.0 2.0 4 ------- null}
r -t 1.200090912 -s 6 -d 3 -p tcp -e 1040 -c 0 -i 18 -a 0 -x {2.0 3.0 5 ------- null}
h -t 1.200090912 -s 3 -d 6 -p ack -e 40 -c 0 -i 26 -a 0 -x {3.0 2.0 5 ------- null}
r -t 1.200107968 -s 6 -d 3 -p tcp -e 1040 -c 0 -i 19 -a 0 -x {2.0 3.0 6 ------- null}
h -t 1.200107968 -s 3 -d 6 -p ack -e 40 -c 0 -i 27 -a 0 -x {3.0 2.0 6 ------- null}
+ -t 1.2239768 -s 4 -d 6 -p ack -e 40 -c 0 -i 20 -a 0 -x {5.0 0.0 3 ------- null}
- -t 1.2239768 -s 4 -d 6 -p ack -e 40 -c 0 -i 20 -a 0 -x {5.0 0.0 3 ------- null}
h -t 1.2239768 -s 4 -d 6 -p ack -e 40 -c 0 -i 20 -a 0 -x {5.0 0.0 -1 ------- null}
+ -t 1.2322968 -s 4 -d 6 -p ack -e 40 -c 0 -i 21 -a 0 -x {5.0 0.0 4 ------- null}
- -t 1.2322968 -s 4 -d 6 -p ack -e 40 -c 0 -i 21 -a 0 -x {5.0 0.0 4 ------- null}
h -t 1.2322968 -s 4 -d 6 -p ack -e 40 -c 0 -i 21 -a 0 -x {5.0 0.0 -1 ------- null}
+ -t 1.2406168 -s 4 -d 6 -p ack -e 40 -c 0 -i 22 -a 0 -x {5.0 0.0 5 ------- null}
- -t 1.2406168 -s 4 -d 6 -p ack -e 40 -c 0 -i 22 -a 0 -x {5.0 0.0 5 ------- null}
h -t 1.2406168 -s 4 -d 6 -p ack -e 40 -c 0 -i 22 -a 0 -x {5.0 0.0 -1 ------- null}
+ -t 1.2489368 -s 4 -d 6 -p ack -e 40 -c 0 -i 23 -a 0 -x {5.0 0.0 6 ------- null}
- -t 1.2489368 -s 4 -d 6 -p ack -e 40 -c 0 -i 23 -a 0 -x {5.0 0.0 6 ------- null}
h -t 1.2489368 -s 4 -d 6 -p ack -e 40 -c 0 -i 23 -a 0 -x {5.0 0.0 -1 ------- null}
+ -t 1.3000568 -s 3 -d 6 -p ack -e 40 -c 0 -i 24 -a 0 -x {3.0 2.0 3 ------- null}
- -t 1.3000568 -s 3 -d 6 -p ack -e 40 -c 0 -i 24 -a 0 -x {3.0 2.0 3 ------- null}
h -t 1.3000568 -s 3 -d 6 -p ack -e 40 -c 0 -i 24 -a 0 -x {3.0 2.0 -1 ------- null}
+ -t 1.300073856 -s 3 -d 6 -p ack -e 40 -c 0 -i 25 -a 0 -x {3.0 2.0 4 ------- null}
- -t 1.300073856 -s 3 -d 6 -p ack -e 40 -c 0 -i 25 -a 0 -x {3.0 2.0 4 ------- null}
h -t 1.300073856 -s 3 -d 6 -p ack -e 40 -c 0 -i 25 -a 0 -x {3.0 2.0 -1 ------- null}
+ -t 1.300090912 -s 3 -d 6 -p ack -e 40 -c 0 -i 26 -a 0 -x {3.0 2.0 5 ------- null}
- -t 1.300090912 -s 3 -d 6 -p ack -e 40 -c 0 -i 26 -a 0 -x {3.0 2.0 5 ------- null}
h -t 1.300090912 -s 3 -d 6 -p ack -e 40 -c 0 -i 26 -a 0 -x {3.0 2.0 -1 ------- null}
+ -t 1.300107968 -s 3 -d 6 -p ack -e 40 -c 0 -i 27 -a 0 -x {3.0 2.0 6 ------- null}
- -t 1.300107968 -s 3 -d 6 -p ack -e 40 -c 0 -i 27 -a 0 -x {3.0 2.0 6 ------- null}
h -t 1.300107968 -s 3 -d 6 -p ack -e 40 -c 0 -i 27 -a 0 -x {3.0 2.0 -1 ------- null}
r -t 1.323981824 -s 6 -d 0 -p ack -e 40 -c 0 -i 20 -a 0 -x {5.0 0.0 3 ------- null}
h -t 1.323981824 -s 0 -d 6 -p tcp -e 1040 -c 0 -i 28 -a 0 -x {0.0 5.0 7 ------- null}
h -t 1.323981824 -s 0 -d 6 -p tcp -e 1040 -c 0 -i 29 -a 0 -x {0.0 5.0 8 ------- null}
r -t 1.332301824 -s 6 -d 0 -p ack -e 40 -c 0 -i 21 -a 0 -x {5.0 0.0 4 ------- null}
h -t 1.332301824 -s 0 -d 6 -p tcp -e 1040 -c 0 -i 30 -a 0 -x {0.0 5.0 9 ------- null}
h -t 1.332301824 -s 0 -d 6 -p tcp -e 1040 -c 0 -i 31 -a 0 -x {0.0 5.0 10 ------- null}
r -t 1.340621824 -s 6 -d 0 -p ack -e 40 -c 0 -i 22 -a 0 -x {5.0 0.0 5 ------- null}
h -t 1.340621824 -s 0 -d 6 -p tcp -e 1040 -c 0 -i 32 -a 0 -x {0.0 5.0 11 ------- null}
h -t 1.340621824 -s 0 -d 6 -p tcp -e 1040 -c 0 -i 33 -a 0 -x {0.0 5.0 12 ------- null}
r -t 1.348941824 -s 6 -d 0 -p ack -e 40 -c 0 -i 23 -a 0 -x {5.0 0.0 6 ------- null}
h -t 1.348941824 -s 0 -d 6 -p tcp -e 1040 -c 0 -i 34 -a 0 -x {0.0 5.0 13 ------- null}
h -t 1.348941824 -s 0 -d 6 -p tcp -e 1040 -c 0 -i 35 -a 0 -x {0.0 5.0 14 ------- null}
r -t 1.400061824 -s 6 -d 2 -p ack -e 40 -c 0 -i 24 -a 0 -x {3.0 2.0 3 ------- null}
h -t 1.400061824 -s 2 -d 6 -p tcp -e 1040 -c 0 -i 36 -a 0 -x {2.0 3.0 7 ------- null}
h -t 1.400061824 -s 2 -d 6 -p tcp -e 1040 -c 0 -i 37 -a 0 -x {2.0 3.0 8 ------- null}
r -t 1.40007888 -s 6 -d 2 -p ack -e 40 -c 0 -i 25 -a 0 -x {3.0 2.0 4 ------- null}
h -t 1.40007888 -s 2 -d 6 -p tcp -e 1040 -c 0 -i 38 -a 0 -x {2.0 3.0 9 ------- null}
h -t 1.40007888 -s 2 -d 6 -p tcp -e 1040 -c 0 -i 39 -a 0 -x {2.0 3.0 10 ------- null}
r -t 1.400095936 -s 6 -d 2 -p ack -e 40 -c 0 -i 26 -a 0 -x {3.0 2.0 5 ------- null}
h -t 1.400095936 -s 2 -d 6 -p tcp -e 1040 -c 0 -i 40 -a 0 -x {2.0 3.0 11 ------- null}
h -t 1.400095936 -s 2 -d 6 -p tcp -e 1040 -c 0 -i 41 -a 0 -x {2.0 3.0 12 ------- null}
r -t 1.400112992 -s 6 -d 2 -p ack -e 40 -c 0 -i 27 -a 0 -x {3.0 2.0 6 ------- null}
h -t 1.400112992 -s 2 -d 6 -p tcp -e 1040 -c 0 -i 42 -a 0 -x {2.0 3.0 13 ------- null}
h -t 1.400112992 -s 2 -d 6 -p tcp -e 1040 -c 0 -i 43 -a 0 -x {2.0 3.0 14 ------- null}
+ -t 1.423981824 -s 0 -d 6 -p tcp -e 1040 -c 0 -i 28 -a 0 -x {0.0 5.0 7 ------- null}
- -t 1.423981824 -s 0 -d 6 -p tcp -e 1040 -c 0 -i 28 -a 0 -x {0.0 5.0 7 ------- null}
h -t 1.423981824 -s 0 -d 6 -p tcp -e 1040 -c 0 -i 28 -a 0 -x {0.0 5.0 -1 ------- null}
+ -t 1.423981824 -s 0 -d 6 -p tcp -e 1040 -c 0 -i 29 -a 0 -x {0.0 5.0 8 ------- null}
- -t 1.42399888 -s 0 -d 6 -p tcp -e 1040 -c 0 -i 29 -a 0 -x {0.0 5.0 8 ------- null}
h -t 1.42399888 -s 0 -d 6 -p tcp -e 1040 -c 0 -i 29 -a 0 -x {0.0 5.0 -1 ------- null}
+ -t 1.432301824 -s 0 -d 6 -p tcp -e 1040 -c 0 -i 30 -a 0 -x {0.0 5.0 9 ------- null}
- -t 1.432301824 -s 0 -d 6 -p tcp -e 1040 -c 0 -i 30 -a 0 -x {0.0 5.0 9 ------- null}
h -t 1.432301824 -s 0 -d 6 -p tcp -e 1040 -c 0 -i 30 -a 0 -x {0.0 5.0 -1 ------- null}
+ -t 1.432301824 -s 0 -d 6 -p tcp -e 1040 -c 0 -i 31 -a 0 -x {0.0 5.0 10 ------- null}
- -t 1.43231888 -s 0 -d 6 -p tcp -e 1040 -c 0 -i 31 -a 0 -x {0.0 5.0 10 ------- null}
h -t 1.43231888 -s 0 -d 6 -p tcp -e 1040 -c 0 -i 31 -a 0 -x {0.0 5.0 -1 ------- null}
+ -t 1.440621824 -s 0 -d 6 -p tcp -e 1040 -c 0 -i 32 -a 0 -x {0.0 5.0 11 ------- null}
- -t 1.440621824 -s 0 -d 6 -p tcp -e 1040 -c 0 -i 32 -a 0 -x {0.0 5.0 11 ------- null}
h -t 1.440621824 -s 0 -d 6 -p tcp -e 1040 -c 0 -i 32 -a 0 -x {0.0 5.0 -1 ------- null}
+ -t 1.440621824 -s 0 -d 6 -p tcp -e 1040 -c 0 -i 33 -a 0 -x {0.0 5.0 12 ------- null}
- -t 1.44063888 -s 0 -d 6 -p tcp -e 1040 -c 0 -i 33 -a 0 -x {0.0 5.0 12 ------- null}
h -t 1.44063888 -s 0 -d 6 -p tcp -e 1040 -c 0 -i 33 -a 0 -x {0.0 5.0 -1 ------- null}
+ -t 1.448941824 -s 0 -d 6 -p tcp -e 1040 -c 0 -i 34 -a 0 -x {0.0 5.0 13 ------- null}
- -t 1.448941824 -s 0 -d 6 -p tcp -e 1040 -c 0 -i 34 -a 0 -x {0.0 5.0 13 ------- null}
h -t 1.448941824 -s 0 -d 6 -p tcp -e 1040 -c 0 -i 34 -a 0 -x {0.0 5.0 -1 ------- null}
+ -t 1.448941824 -s 0 -d 6 -p tcp -e 1040 -c 0 -i 35 -a 0 -x {0.0 5.0 14 ------- null}
- -t 1.44895888 -s 0 -d 6 -p tcp -e 1040 -c 0 -i 35 -a 0 -x {0.0 5.0 14 ------- null}
h -t 1.44895888 -s 0 -d 6 -p tcp -e 1040 -c 0 -i 35 -a 0 -x {0.0 5.0 -1 ------- null}
+ -t 1.500061824 -s 2 -d 6 -p tcp -e 1040 -c 0 -i 36 -a 0 -x {2.0 3.0 7 ------- null}
- -t 1.500061824 -s 2 -d 6 -p tcp -e 1040 -c 0 -i 36 -a 0 -x {2.0 3.0 7 ------- null}
h -t 1.500061824 -s 2 -d 6 -p tcp -e 1040 -c 0 -i 36 -a 0 -x {2.0 3.0 -1 ------- null}
+ -t 1.500061824 -s 2 -d 6 -p tcp -e 1040 -c 0 -i 37 -a 0 -x {2.0 3.0 8 ------- null}
+ -t 1.50007888 -s 2 -d 6 -p tcp -e 1040 -c 0 -i 38 -a 0 -x {2.0 3.0 9 ------- null}
+ -t 1.50007888 -s 2 -d 6 -p tcp -e 1040 -c 0 -i 39 -a 0 -x {2.0 3.0 10 ------- null}
- -t 1.50007888 -s 2 -d 6 -p tcp -e 1040 -c 0 -i 37 -a 0 -x {2.0 3.0 8 ------- null}
h -t 1.50007888 -s 2 -d 6 -p tcp -e 1040 -c 0 -i 37 -a 0 -x {2.0 3.0 -1 ------- null}
+ -t 1.500095936 -s 2 -d 6 -p tcp -e 1040 -c 0 -i 40 -a 0 -x {2.0 3.0 11 ------- null}
+ -t 1.500095936 -s 2 -d 6 -p tcp -e 1040 -c 0 -i 41 -a 0 -x {2.0 3.0 12 ------- null}
- -t 1.500095936 -s 2 -d 6 -p tcp -e 1040 -c 0 -i 38 -a 0 -x {2.0 3.0 9 ------- null}
h -t 1.500095936 -s 2 -d 6 -p tcp -e 1040 -c 0 -i 38 -a 0 -x {2.0 3.0 -1 ------- null}
+ -t 1.500112992 -s 2 -d 6 -p tcp -e 1040 -c 0 -i 42 -a 0 -x {2.0 3.0 13 ------- null}
+ -t 1.500112992 -s 2 -d 6 -p tcp -e 1040 -c 0 -i 43 -a 0 -x {2.0 3.0 14 ------- null}
- -t 1.500112992 -s 2 -d 6 -p tcp -e 1040 -c 0 -i 39 -a 0 -x {2.0 3.0 10 ------- null}
h -t 1.500112992 -s 2 -d 6 -p tcp -e 1040 -c 0 -i 39 -a 0 -x {2.0 3.0 -1 ------- null}
- -t 1.500130048 -s 2 -d 6 -p tcp -e 1040 -c 0 -i 40 -a 0 -x {2.0 3.0 11 ------- null}
h -t 1.500130048 -s 2 -d 6 -p tcp -e 1040 -c 0 -i 40 -a 0 -x {2.0 3.0 -1 ------- null}
- -t 1.500147104 -s 2 -d 6 -p tcp -e 1040 -c 0 -i 41 -a 0 -x {2.0 3.0 12 ------- null}
h -t 1.500147104 -s 2 -d 6 -p tcp -e 1040 -c 0 -i 41 -a 0 -x {2.0 3.0 -1 ------- null}
- -t 1.50016416 -s 2 -d 6 -p tcp -e 1040 -c 0 -i 42 -a 0 -x {2.0 3.0 13 ------- null}
h -t 1.50016416 -s 2 -d 6 -p tcp -e 1040 -c 0 -i 42 -a 0 -x {2.0 3.0 -1 ------- null}
- -t 1.500181216 -s 2 -d 6 -p tcp -e 1040 -c 0 -i 43 -a 0 -x {2.0 3.0 14 ------- null}
h -t 1.500181216 -s 2 -d 6 -p tcp -e 1040 -c 0 -i 43 -a 0 -x {2.0 3.0 -1 ------- null}
r -t 1.524002688 -s 6 -d 4 -p tcp -e 1040 -c 0 -i 28 -a 0 -x {0.0 5.0 7 ------- null}
+ -t 1.524002688 -s 4 -d 5 -p tcp -e 1040 -c 0 -i 28 -a 0 -x {0.0 5.0 7 ------- null}
- -t 1.524002688 -s 4 -d 5 -p tcp -e 1040 -c 0 -i 28 -a 0 -x {0.0 5.0 7 ------- null}
h -t 1.524002688 -s 4 -d 5 -p tcp -e 1040 -c 0 -i 28 -a 0 -x {0.0 5.0 -1 ------- null}
r -t 1.524019744 -s 6 -d 4 -p tcp -e 1040 -c 0 -i 29 -a 0 -x {0.0 5.0 8 ------- null}
+ -t 1.524019744 -s 4 -d 5 -p tcp -e 1040 -c 0 -i 29 -a 0 -x {0.0 5.0 8 ------- null}
r -t 1.532322688 -s 6 -d 4 -p tcp -e 1040 -c 0 -i 30 -a 0 -x {0.0 5.0 9 ------- null}
+ -t 1.532322688 -s 4 -d 5 -p tcp -e 1040 -c 0 -i 30 -a 0 -x {0.0 5.0 9 ------- null}
- -t 1.532322688 -s 4 -d 5 -p tcp -e 1040 -c 0 -i 29 -a 0 -x {0.0 5.0 8 ------- null}
h -t 1.532322688 -s 4 -d 5 -p tcp -e 1040 -c 0 -i 29 -a 0 -x {0.0 5.0 -1 ------- null}
r -t 1.532339744 -s 6 -d 4 -p tcp -e 1040 -c 0 -i 31 -a 0 -x {0.0 5.0 10 ------- null}
+ -t 1.532339744 -s 4 -d 5 -p tcp -e 1040 -c 0 -i 31 -a 0 -x {0.0 5.0 10 ------- null}
r -t 1.533322688 -s 4 -d 5 -p tcp -e 1040 -c 0 -i 28 -a 0 -x {0.0 5.0 7 ------- null}
+ -t 1.533322688 -s 5 -d 4 -p ack -e 40 -c 0 -i 44 -a 0 -x {5.0 0.0 7 ------- null}
- -t 1.533322688 -s 5 -d 4 -p ack -e 40 -c 0 -i 44 -a 0 -x {5.0 0.0 7 ------- null}
h -t 1.533322688 -s 5 -d 4 -p ack -e 40 -c 0 -i 44 -a 0 -x {5.0 0.0 -1 ------- null}
r -t 1.534642688 -s 5 -d 4 -p ack -e 40 -c 0 -i 44 -a 0 -x {5.0 0.0 7 ------- null}
h -t 1.534642688 -s 4 -d 6 -p ack -e 40 -c 0 -i 44 -a 0 -x {5.0 0.0 7 ------- null}
r -t 1.540642688 -s 6 -d 4 -p tcp -e 1040 -c 0 -i 32 -a 0 -x {0.0 5.0 11 ------- null}
+ -t 1.540642688 -s 4 -d 5 -p tcp -e 1040 -c 0 -i 32 -a 0 -x {0.0 5.0 11 ------- null}
- -t 1.540642688 -s 4 -d 5 -p tcp -e 1040 -c 0 -i 30 -a 0 -x {0.0 5.0 9 ------- null}
h -t 1.540642688 -s 4 -d 5 -p tcp -e 1040 -c 0 -i 30 -a 0 -x {0.0 5.0 -1 ------- null}
r -t 1.540659744 -s 6 -d 4 -p tcp -e 1040 -c 0 -i 33 -a 0 -x {0.0 5.0 12 ------- null}
+ -t 1.540659744 -s 4 -d 5 -p tcp -e 1040 -c 0 -i 33 -a 0 -x {0.0 5.0 12 ------- null}
r -t 1.541642688 -s 4 -d 5 -p tcp -e 1040 -c 0 -i 29 -a 0 -x {0.0 5.0 8 ------- null}
+ -t 1.541642688 -s 5 -d 4 -p ack -e 40 -c 0 -i 45 -a 0 -x {5.0 0.0 8 ------- null}
- -t 1.541642688 -s 5 -d 4 -p ack -e 40 -c 0 -i 45 -a 0 -x {5.0 0.0 8 ------- null}
h -t 1.541642688 -s 5 -d 4 -p ack -e 40 -c 0 -i 45 -a 0 -x {5.0 0.0 -1 ------- null}
r -t 1.542962688 -s 5 -d 4 -p ack -e 40 -c 0 -i 45 -a 0 -x {5.0 0.0 8 ------- null}
h -t 1.542962688 -s 4 -d 6 -p ack -e 40 -c 0 -i 45 -a 0 -x {5.0 0.0 8 ------- null}
r -t 1.548962688 -s 6 -d 4 -p tcp -e 1040 -c 0 -i 34 -a 0 -x {0.0 5.0 13 ------- null}
+ -t 1.548962688 -s 4 -d 5 -p tcp -e 1040 -c 0 -i 34 -a 0 -x {0.0 5.0 13 ------- null}
- -t 1.548962688 -s 4 -d 5 -p tcp -e 1040 -c 0 -i 31 -a 0 -x {0.0 5.0 10 ------- null}
h -t 1.548962688 -s 4 -d 5 -p tcp -e 1040 -c 0 -i 31 -a 0 -x {0.0 5.0 -1 ------- null}
r -t 1.548979744 -s 6 -d 4 -p tcp -e 1040 -c 0 -i 35 -a 0 -x {0.0 5.0 14 ------- null}
+ -t 1.548979744 -s 4 -d 5 -p tcp -e 1040 -c 0 -i 35 -a 0 -x {0.0 5.0 14 ------- null}
r -t 1.549962688 -s 4 -d 5 -p tcp -e 1040 -c 0 -i 30 -a 0 -x {0.0 5.0 9 ------- null}
+ -t 1.549962688 -s 5 -d 4 -p ack -e 40 -c 0 -i 46 -a 0 -x {5.0 0.0 9 ------- null}
- -t 1.549962688 -s 5 -d 4 -p ack -e 40 -c 0 -i 46 -a 0 -x {5.0 0.0 9 ------- null}
h -t 1.549962688 -s 5 -d 4 -p ack -e 40 -c 0 -i 46 -a 0 -x {5.0 0.0 -1 ------- null}
r -t 1.551282688 -s 5 -d 4 -p ack -e 40 -c 0 -i 46 -a 0 -x {5.0 0.0 9 ------- null}
h -t 1.551282688 -s 4 -d 6 -p ack -e 40 -c 0 -i 46 -a 0 -x {5.0 0.0 9 ------- null}
- -t 1.557282688 -s 4 -d 5 -p tcp -e 1040 -c 0 -i 32 -a 0 -x {0.0 5.0 11 ------- null}
h -t 1.557282688 -s 4 -d 5 -p tcp -e 1040 -c 0 -i 32 -a 0 -x {0.0 5.0 -1 ------- null}
r -t 1.558282688 -s 4 -d 5 -p tcp -e 1040 -c 0 -i 31 -a 0 -x {0.0 5.0 10 ------- null}
+ -t 1.558282688 -s 5 -d 4 -p ack -e 40 -c 0 -i 47 -a 0 -x {5.0 0.0 10 ------- null}
- -t 1.558282688 -s 5 -d 4 -p ack -e 40 -c 0 -i 47 -a 0 -x {5.0 0.0 10 ------- null}
h -t 1.558282688 -s 5 -d 4 -p ack -e 40 -c 0 -i 47 -a 0 -x {5.0 0.0 -1 ------- null}
r -t 1.559602688 -s 5 -d 4 -p ack -e 40 -c 0 -i 47 -a 0 -x {5.0 0.0 10 ------- null}
h -t 1.559602688 -s 4 -d 6 -p ack -e 40 -c 0 -i 47 -a 0 -x {5.0 0.0 10 ------- null}
- -t 1.565602688 -s 4 -d 5 -p tcp -e 1040 -c 0 -i 33 -a 0 -x {0.0 5.0 12 ------- null}
h -t 1.565602688 -s 4 -d 5 -p tcp -e 1040 -c 0 -i 33 -a 0 -x {0.0 5.0 -1 ------- null}
r -t 1.566602688 -s 4 -d 5 -p tcp -e 1040 -c 0 -i 32 -a 0 -x {0.0 5.0 11 ------- null}
+ -t 1.566602688 -s 5 -d 4 -p ack -e 40 -c 0 -i 48 -a 0 -x {5.0 0.0 11 ------- null}
- -t 1.566602688 -s 5 -d 4 -p ack -e 40 -c 0 -i 48 -a 0 -x {5.0 0.0 11 ------- null}
h -t 1.566602688 -s 5 -d 4 -p ack -e 40 -c 0 -i 48 -a 0 -x {5.0 0.0 -1 ------- null}
r -t 1.567922688 -s 5 -d 4 -p ack -e 40 -c 0 -i 48 -a 0 -x {5.0 0.0 11 ------- null}
h -t 1.567922688 -s 4 -d 6 -p ack -e 40 -c 0 -i 48 -a 0 -x {5.0 0.0 11 ------- null}
- -t 1.573922688 -s 4 -d 5 -p tcp -e 1040 -c 0 -i 34 -a 0 -x {0.0 5.0 13 ------- null}
h -t 1.573922688 -s 4 -d 5 -p tcp -e 1040 -c 0 -i 34 -a 0 -x {0.0 5.0 -1 ------- null}
r -t 1.574922688 -s 4 -d 5 -p tcp -e 1040 -c 0 -i 33 -a 0 -x {0.0 5.0 12 ------- null}
+ -t 1.574922688 -s 5 -d 4 -p ack -e 40 -c 0 -i 49 -a 0 -x {5.0 0.0 12 ------- null}
- -t 1.574922688 -s 5 -d 4 -p ack -e 40 -c 0 -i 49 -a 0 -x {5.0 0.0 12 ------- null}
h -t 1.574922688 -s 5 -d 4 -p ack -e 40 -c 0 -i 49 -a 0 -x {5.0 0.0 -1 ------- null}
r -t 1.576242688 -s 5 -d 4 -p ack -e 40 -c 0 -i 49 -a 0 -x {5.0 0.0 12 ------- null}
h -t 1.576242688 -s 4 -d 6 -p ack -e 40 -c 0 -i 49 -a 0 -x {5.0 0.0 12 ------- null}
- -t 1.582242688 -s 4 -d 5 -p tcp -e 1040 -c 0 -i 35 -a 0 -x {0.0 5.0 14 ------- null}
h -t 1.582242688 -s 4 -d 5 -p tcp -e 1040 -c 0 -i 35 -a 0 -x {0.0 5.0 -1 ------- null}
r -t 1.583242688 -s 4 -d 5 -p tcp -e 1040 -c 0 -i 34 -a 0 -x {0.0 5.0 13 ------- null}
+ -t 1.583242688 -s 5 -d 4 -p ack -e 40 -c 0 -i 50 -a 0 -x {5.0 0.0 13 ------- null}
- -t 1.583242688 -s 5 -d 4 -p ack -e 40 -c 0 -i 50 -a 0 -x {5.0 0.0 13 ------- null}
h -t 1.583242688 -s 5 -d 4 -p ack -e 40 -c 0 -i 50 -a 0 -x {5.0 0.0 -1 ------- null}
r -t 1.584562688 -s 5 -d 4 -p ack -e 40 -c 0 -i 50 -a 0 -x {5.0 0.0 13 ------- null}
h -t 1.584562688 -s 4 -d 6 -p ack -e 40 -c 0 -i 50 -a 0 -x {5.0 0.0 13 ------- null}
r -t 1.591562688 -s 4 -d 5 -p tcp -e 1040 -c 0 -i 35 -a 0 -x {0.0 5.0 14 ------- null}
+ -t 1.591562688 -s 5 -d 4 -p ack -e 40 -c 0 -i 51 -a 0 -x {5.0 0.0 14 ------- null}
- -t 1.591562688 -s 5 -d 4 -p ack -e 40 -c 0 -i 51 -a 0 -x {5.0 0.0 14 ------- null}
h -t 1.591562688 -s 5 -d 4 -p ack -e 40 -c 0 -i 51 -a 0 -x {5.0 0.0 -1 ------- null}
r -t 1.592882688 -s 5 -d 4 -p ack -e 40 -c 0 -i 51 -a 0 -x {5.0 0.0 14 ------- null}
h -t 1.592882688 -s 4 -d 6 -p ack -e 40 -c 0 -i 51 -a 0 -x {5.0 0.0 14 ------- null}
r -t 1.600082688 -s 6 -d 3 -p tcp -e 1040 -c 0 -i 36 -a 0 -x {2.0 3.0 7 ------- null}
h -t 1.600082688 -s 3 -d 6 -p ack -e 40 -c 0 -i 52 -a 0 -x {3.0 2.0 7 ------- null}
r -t 1.600099744 -s 6 -d 3 -p tcp -e 1040 -c 0 -i 37 -a 0 -x {2.0 3.0 8 ------- null}
h -t 1.600099744 -s 3 -d 6 -p ack -e 40 -c 0 -i 53 -a 0 -x {3.0 2.0 8 ------- null}