V -t * -v 1.0a5 -a 0
A -t * -n 1 -p 0 -o 0x7fffffff -c 30 -a 1
A -t * -h 1 -m 1073741823 -s 0
n -t * -a 4 -s 4 -S UP -v box -c black -i black
n -t * -a 0 -s 0 -S UP -v circle -c black -i black
n -t * -a 5 -s 5 -S UP -v circle -c black -i black
n -t * -a 1 -s 1 -S UP -v circle -c black -i black
n -t * -a 2 -s 2 -S UP -v circle -c black -i black
n -t * -a 3 -s 3 -S UP -v circle -c black -i black
l -t * -s 0 -d 4 -S UP -r 1005000000 -D 0.001 -c black
l -t * -s 1 -d 4 -S UP -r 50000000 -D 0.001 -c black
l -t * -s 2 -d 4 -S UP -r 200000000 -D 0.001 -c black
l -t * -s 3 -d 4 -S UP -r 200000000 -D 0.001 -c black
l -t * -s 4 -d 5 -S UP -r 1000000 -D 0.001 -c black
+ -t 0.1 -s 0 -d 4 -p ping -e 50000 -c 0 -i 0 -a 0 -x {0.0 5.0 -1 ------- null}
- -t 0.1 -s 0 -d 4 -p ping -e 50000 -c 0 -i 0 -a 0 -x {0.0 5.0 -1 ------- null}
h -t 0.1 -s 0 -d 4 -p ping -e 50000 -c 0 -i 0 -a 0 -x {0.0 5.0 -1 ------- null}
+ -t 0.1 -s 2 -d 4 -p ping -e 30000 -c 0 -i 1 -a 0 -x {2.0 3.0 -1 ------- null}
- -t 0.1 -s 2 -d 4 -p ping -e 30000 -c 0 -i 1 -a 0 -x {2.0 3.0 -1 ------- null}
h -t 0.1 -s 2 -d 4 -p ping -e 30000 -c 0 -i 1 -a 0 -x {2.0 3.0 -1 ------- null}
r -t 0.101398009950249 -s 0 -d 4 -p ping -e 50000 -c 0 -i 0 -a 0 -x {0.0 5.0 -1 ------- null}
+ -t 0.101398009950249 -s 4 -d 5 -p ping -e 50000 -c 0 -i 0 -a 0 -x {0.0 5.0 -1 ------- null}
- -t 0.101398009950249 -s 4 -d 5 -p ping -e 50000 -c 0 -i 0 -a 0 -x {0.0 5.0 -1 ------- null}
h -t 0.101398009950249 -s 4 -d 5 -p ping -e 50000 -c 0 -i 0 -a 0 -x {0.0 5.0 -1 ------- null}
r -t 0.1022 -s 2 -d 4 -p ping -e 30000 -c 0 -i 1 -a 0 -x {2.0 3.0 -1 ------- null}
+ -t 0.1022 -s 4 -d 3 -p ping -e 30000 -c 0 -i 1 -a 0 -x {2.0 3.0 -1 ------- null}
- -t 0.1022 -s 4 -d 3 -p ping -e 30000 -c 0 -i 1 -a 0 -x {2.0 3.0 -1 ------- null}
h -t 0.1022 -s 4 -d 3 -p ping -e 30000 -c 0 -i 1 -a 0 -x {2.0 3.0 -1 ------- null}
r -t 0.1044 -s 4 -d 3 -p ping -e 30000 -c 0 -i 1 -a 0 -x {2.0 3.0 -1 ------- null}
+ -t 0.1044 -s 3 -d 4 -p ping -e 64 -c 0 -i 2 -a 0 -x {3.0 2.0 -1 ------- null}
- -t 0.1044 -s 3 -d 4 -p ping -e 64 -c 0 -i 2 -a 0 -x {3.0 2.0 -1 ------- null}
h -t 0.1044 -s 3 -d 4 -p ping -e 64 -c 0 -i 2 -a 0 -x {3.0 2.0 -1 ------- null}
r -t 0.10540256 -s 3 -d 4 -p ping -e 64 -c 0 -i 2 -a 0 -x {3.0 2.0 -1 ------- null}
+ -t 0.10540256 -s 4 -d 2 -p ping -e 64 -c 0 -i 2 -a 0 -x {3.0 2.0 -1 ------- null}
- -t 0.10540256 -s 4 -d 2 -p ping -e 64 -c 0 -i 2 -a 0 -x {3.0 2.0 -1 ------- null}
h -t 0.10540256 -s 4 -d 2 -p ping -e 64 -c 0 -i 2 -a 0 -x {3.0 2.0 -1 ------- null}
r -t 0.10640512 -s 4 -d 2 -p ping -e 64 -c 0 -i 2 -a 0 -x {3.0 2.0 -1 ------- null}
+ -t 0.2 -s 0 -d 4 -p ping -e 50000 -c 0 -i 3 -a 0 -x {0.0 5.0 -1 ------- null}
- -t 0.2 -s 0 -d 4 -p ping -e 50000 -c 0 -i 3 -a 0 -x {0.0 5.0 -1 ------- null}
h -t 0.2 -s 0 -d 4 -p ping -e 50000 -c 0 -i 3 -a 0 -x {0.0 5.0 -1 ------- null}
+ -t 0.2 -s 2 -d 4 -p ping -e 30000 -c 0 -i 4 -a 0 -x {2.0 3.0 -1 ------- null}
- -t 0.2 -s 2 -d 4 -p ping -e 30000 -c 0 -i 4 -a 0 -x {2.0 3.0 -1 ------- null}
h -t 0.2 -s 2 -d 4 -p ping -e 30000 -c 0 -i 4 -a 0 -x {2.0 3.0 -1 ------- null}
r -t 0.201398009950249 -s 0 -d 4 -p ping -e 50000 -c 0 -i 3 -a 0 -x {0.0 5.0 -1 ------- null}
+ -t 0.201398009950249 -s 4 -d 5 -p ping -e 50000 -c 0 -i 3 -a 0 -x {0.0 5.0 -1 ------- null}
r -t 0.2022 -s 2 -d 4 -p ping -e 30000 -c 0 -i 4 -a 0 -x {2.0 3.0 -1 ------- null}
+ -t 0.2022 -s 4 -d 3 -p ping -e 30000 -c 0 -i 4 -a 0 -x {2.0 3.0 -1 ------- null}
- -t 0.2022 -s 4 -d 3 -p ping -e 30000 -c 0 -i 4 -a 0 -x {2.0 3.0 -1 ------- null}
h -t 0.2022 -s 4 -d 3 -p ping -e 30000 -c 0 -i 4 -a 0 -x {2.0 3.0 -1 ------- null}
r -t 0.2044 -s 4 -d 3 -p ping -e 30000 -c 0 -i 4 -a 0 -x {2.0 3.0 -1 ------- null}
+ -t 0.2044 -s 3 -d 4 -p ping -e 64 -c 0 -i 5 -a 0 -x {3.0 2.0 -1 ------- null}
- -t 0.2044 -s 3 -d 4 -p ping -e 64 -c 0 -i 5 -a 0 -x {3.0 2.0 -1 ------- null}
h -t 0.2044 -s 3 -d 4 -p ping -e 64 -c 0 -i 5 -a 0 -x {3.0 2.0 -1 ------- null}
r -t 0.20540256 -s 3 -d 4 -p ping -e 64 -c 0 -i 5 -a 0 -x {3.0 2.0 -1 ------- null}
+ -t 0.20540256 -s 4 -d 2 -p ping -e 64 -c 0 -i 5 -a 0 -x {3.0 2.0 -1 ------- null}
- -t 0.20540256 -s 4 -d 2 -p ping -e 64 -c 0 -i 5 -a 0 -x {3.0 2.0 -1 ------- null}
h -t 0.20540256 -s 4 -d 2 -p ping -e 64 -c 0 -i 5 -a 0 -x {3.0 2.0 -1 ------- null}
r -t 0.20640512 -s 4 -d 2 -p ping -e 64 -c 0 -i 5 -a 0 -x {3.0 2.0 -1 ------- null}
+ -t 0.3 -s 0 -d 4 -p ping -e 50000 -c 0 -i 6 -a 0 -x {0.0 5.0 -1 ------- null}
- -t 0.3 -s 0 -d 4 -p ping -e 50000 -c 0 -i 6 -a 0 -x {0.0 5.0 -1 ------- null}
h -t 0.3 -s 0 -d 4 -p ping -e 50000 -c 0 -i 6 -a 0 -x {0.0 5.0 -1 ------- null}
+ -t 0.3 -s 2 -d 4 -p ping -e 30000 -c 0 -i 7 -a 0 -x {2.0 3.0 -1 ------- null}
- -t 0.3 -s 2 -d 4 -p ping -e 30000 -c 0 -i 7 -a 0 -x {2.0 3.0 -1 ------- null}
h -t 0.3 -s 2 -d 4 -p ping -e 30000 -c 0 -i 7 -a 0 -x {2.0 3.0 -1 ------- null}
r -t 0.301398009950249 -s 0 -d 4 -p ping -e 50000 -c 0 -i 6 -a 0 -x {0.0 5.0 -1 ------- null}
+ -t 0.301398009950249 -s 4 -d 5 -p ping -e 50000 -c 0 -i 6 -a 0 -x {0.0 5.0 -1 ------- null}
d -t 0.301398009950249 -s 4 -d 5 -p ping -e 50000 -c 0 -i 6 -a 0 -x {0.0 5.0 -1 ------- null}
r -t 0.3022 -s 2 -d 4 -p ping -e 30000 -c 0 -i 7 -a 0 -x {2.0 3.0 -1 ------- null}
+ -t 0.3022 -s 4 -d 3 -p ping -e 30000 -c 0 -i 7 -a 0 -x {2.0 3.0 -1 ------- null}
- -t 0.3022 -s 4 -d 3 -p ping -e 30000 -c 0 -i 7 -a 0 -x {2.0 3.0 -1 ------- null}
h -t 0.3022 -s 4 -d 3 -p ping -e 30000 -c 0 -i 7 -a 0 -x {2.0 3.0 -1 ------- null}
r -t 0.3044 -s 4 -d 3 -p ping -e 30000 -c 0 -i 7 -a 0 -x {2.0 3.0 -1 ------- null}
+ -t 0.3044 -s 3 -d 4 -p ping -e 64 -c 0 -i 8 -a 0 -x {3.0 2.0 -1 ------- null}
- -t 0.3044 -s 3 -d 4 -p ping -e 64 -c 0 -i 8 -a 0 -x {3.0 2.0 -1 ------- null}
h -t 0.3044 -s 3 -d 4 -p ping -e 64 -c 0 -i 8 -a 0 -x {3.0 2.0 -1 ------- null}
r -t 0.30540256 -s 3 -d 4 -p ping -e 64 -c 0 -i 8 -a 0 -x {3.0 2.0 -1 ------- null}
+ -t 0.30540256 -s 4 -d 2 -p ping -e 64 -c 0 -i 8 -a 0 -x {3.0 2.0 -1 ------- null}
- -t 0.30540256 -s 4 -d 2 -p ping -e 64 -c 0 -i 8 -a 0 -x {3.0 2.0 -1 ------- null}
h -t 0.30540256 -s 4 -d 2 -p ping -e 64 -c 0 -i 8 -a 0 -x {3.0 2.0 -1 ------- null}
r -t 0.30640512 -s 4 -d 2 -p ping -e 64 -c 0 -i 8 -a 0 -x {3.0 2.0 -1 ------- null}
+ -t 0.4 -s 0 -d 4 -p ping -e 50000 -c 0 -i 9 -a 0 -x {0.0 5.0 -1 ------- null}
- -t 0.4 -s 0 -d 4 -p ping -e 50000 -c 0 -i 9 -a 0 -x {0.0 5.0 -1 ------- null}
h -t 0.4 -s 0 -d 4 -p ping -e 50000 -c 0 -i 9 -a 0 -x {0.0 5.0 -1 ------- null}
+ -t 0.4 -s 2 -d 4 -p ping -e 30000 -c 0 -i 10 -a 0 -x {2.0 3.0 -1 ------- null}
- -t 0.4 -s 2 -d 4 -p ping -e 30000 -c 0 -i 10 -a 0 -x {2.0 3.0 -1 ------- null}
h -t 0.4 -s 2 -d 4 -p ping -e 30000 -c 0 -i 10 -a 0 -x {2.0 3.0 -1 ------- null}
r -t 0.401398009950249 -s 0 -d 4 -p ping -e 50000 -c 0 -i 9 -a 0 -x {0.0 5.0 -1 ------- null}
+ -t 0.401398009950249 -s 4 -d 5 -p ping -e 50000 -c 0 -i 9 -a 0 -x {0.0 5.0 -1 ------- null}
d -t 0.401398009950249 -s 4 -d 5 -p ping -e 50000 -c 0 -i 9 -a 0 -x {0.0 5.0 -1 ------- null}
r -t 0.4022 -s 2 -d 4 -p ping -e 30000 -c 0 -i 10 -a 0 -x {2.0 3.0 -1 ------- null}
+ -t 0.4022 -s 4 -d 3 -p ping -e 30000 -c 0 -i 10 -a 0 -x {2.0 3.0 -1 ------- null}
- -t 0.4022 -s 4 -d 3 -p ping -e 30000 -c 0 -i 10 -a 0 -x {2.0 3.0 -1 ------- null}
h -t 0.4022 -s 4 -d 3 -p ping -e 30000 -c 0 -i 10 -a 0 -x {2.0 3.0 -1 ------- null}
r -t 0.4044 -s 4 -d 3 -p ping -e 30000 -c 0 -i 10 -a 0 -x {2.0 3.0 -1 ------- null}
+ -t 0.4044 -s 3 -d 4 -p ping -e 64 -c 0 -i 11 -a 0 -x {3.0 2.0 -1 ------- null}
- -t 0.4044 -s 3 -d 4 -p ping -e 64 -c 0 -i 11 -a 0 -x {3.0 2.0 -1 ------- null}
h -t 0.4044 -s 3 -d 4 -p ping -e 64 -c 0 -i 11 -a 0 -x {3.0 2.0 -1 ------- null}
r -t 0.40540256 -s 3 -d 4 -p ping -e 64 -c 0 -i 11 -a 0 -x {3.0 2.0 -1 ------- null}
+ -t 0.40540256 -s 4 -d 2 -p ping -e 64 -c 0 -i 11 -a 0 -x {3.0 2.0 -1 ------- null}
- -t 0.40540256 -s 4 -d 2 -p ping -e 64 -c 0 -i 11 -a 0 -x {3.0 2.0 -1 ------- null}
h -t 0.40540256 -s 4 -d 2 -p ping -e 64 -c 0 -i 11 -a 0 -x {3.0 2.0 -1 ------- null}
r -t 0.40640512 -s 4 -d 2 -p ping -e 64 -c 0 -i 11 -a 0 -x {3.0 2.0 -1 ------- null}
+ -t 0.5 -s 0 -d 4 -p ping -e 50000 -c 0 -i 12 -a 0 -x {0.0 5.0 -1 ------- null}
- -t 0.5 -s 0 -d 4 -p ping -e 50000 -c 0 -i 12 -a 0 -x {0.0 5.0 -1 ------- null}
h -t 0.5 -s 0 -d 4 -p ping -e 50000 -c 0 -i 12 -a 0 -x {0.0 5.0 -1 ------- null}
+ -t 0.5 -s 2 -d 4 -p ping -e 30000 -c 0 -i 13 -a 0 -x {2.0 3.0 -1 ------- null}
- -t 0.5 -s 2 -d 4 -p ping -e 30000 -c 0 -i 13 -a 0 -x {2.0 3.0 -1 ------- null}
h -t 0.5 -s 2 -d 4 -p ping -e 30000 -c 0 -i 13 -a 0 -x {2.0 3.0 -1 ------- null}
- -t 0.501398009950249 -s 4 -d 5 -p ping -e 50000 -c 0 -i 3 -a 0 -x {0.0 5.0 -1 ------- null}
h -t 0.501398009950249 -s 4 -d 5 -p ping -e 50000 -c 0 -i 3 -a 0 -x {0.0 5.0 -1 ------- null}
r -t 0.501398009950249 -s 0 -d 4 -p ping -e 50000 -c 0 -i 12 -a 0 -x {0.0 5.0 -1 ------- null}
+ -t 0.501398009950249 -s 4 -d 5 -p ping -e 50000 -c 0 -i 12 -a 0 -x {0.0 5.0 -1 ------- null}
r -t 0.5022 -s 2 -d 4 -p ping -e 30000 -c 0 -i 13 -a 0 -x {2.0 3.0 -1 ------- null}
+ -t 0.5022 -s 4 -d 3 -p ping -e 30000 -c 0 -i 13 -a 0 -x {2.0 3.0 -1 ------- null}
- -t 0.5022 -s 4 -d 3 -p ping -e 30000 -c 0 -i 13 -a 0 -x {2.0 3.0 -1 ------- null}
h -t 0.5022 -s 4 -d 3 -p ping -e 30000 -c 0 -i 13 -a 0 -x {2.0 3.0 -1 ------- null}
r -t 0.502398009950249 -s 4 -d 5 -p ping -e 50000 -c 0 -i 0 -a 0 -x {0.0 5.0 -1 ------- null}
+ -t 0.502398009950249 -s 5 -d 4 -p ping -e 64 -c 0 -i 14 -a 0 -x {5.0 0.0 -1 ------- null}
- -t 0.502398009950249 -s 5 -d 4 -p ping -e 64 -c 0 -i 14 -a 0 -x {5.0 0.0 -1 ------- null}
h -t 0.502398009950249 -s 5 -d 4 -p ping -e 64 -c 0 -i 14 -a 0 -x {5.0 0.0 -1 ------- null}
r -t 0.503910009950249 -s 5 -d 4 -p ping -e 64 -c 0 -i 14 -a 0 -x {5.0 0.0 -1 ------- null}
+ -t 0.503910009950249 -s 4 -d 0 -p ping -e 64 -c 0 -i 14 -a 0 -x {5.0 0.0 -1 ------- null}
- -t 0.503910009950249 -s 4 -d 0 -p ping -e 64 -c 0 -i 14 -a 0 -x {5.0 0.0 -1 ------- null}
h -t 0.503910009950249 -s 4 -d 0 -p ping -e 64 -c 0 -i 14 -a 0 -x {5.0 0.0 -1 ------- null}
r -t 0.5044 -s 4 -d 3 -p ping -e 30000 -c 0 -i 13 -a 0 -x {2.0 3.0 -1 ------- null}
+ -t 0.5044 -s 3 -d 4 -p ping -e 64 -c 0 -i 15 -a 0 -x {3.0 2.0 -1 ------- null}
- -t 0.5044 -s 3 -d 4 -p ping -e 64 -c 0 -i 15 -a 0 -x {3.0 2.0 -1 ------- null}
h -t 0.5044 -s 3 -d 4 -p ping -e 64 -c 0 -i 15 -a 0 -x {3.0 2.0 -1 ------- null}
r -t 0.504910519402985 -s 4 -d 0 -p ping -e 64 -c 0 -i 14 -a 0 -x {5.0 0.0 -1 ------- null}
r -t 0.50540256 -s 3 -d 4 -p ping -e 64 -c 0 -i 15 -a 0 -x {3.0 2.0 -1 ------- null}
+ -t 0.50540256 -s 4 -d 2 -p ping -e 64 -c 0 -i 15 -a 0 -x {3.0 2.0 -1 ------- null}
- -t 0.50540256 -s 4 -d 2 -p ping -e 64 -c 0 -i 15 -a 0 -x {3.0 2.0 -1 ------- null}
h -t 0.50540256 -s 4 -d 2 -p ping -e 64 -c 0 -i 15 -a 0 -x {3.0 2.0 -1 ------- null}
r -t 0.50640512 -s 4 -d 2 -p ping -e 64 -c 0 -i 15 -a 0 -x {3.0 2.0 -1 ------- null}
+ -t 0.6 -s 0 -d 4 -p ping -e 50000 -c 0 -i 16 -a 0 -x {0.0 5.0 -1 ------- null}
- -t 0.6 -s 0 -d 4 -p ping -e 50000 -c 0 -i 16 -a 0 -x {0.0 5.0 -1 ------- null}
h -t 0.6 -s 0 -d 4 -p ping -e 50000 -c 0 -i 16 -a 0 -x {0.0 5.0 -1 ------- null}
+ -t 0.6 -s 2 -d 4 -p ping -e 30000 -c 0 -i 17 -a 0 -x {2.0 3.0 -1 ------- null}
- -t 0.6 -s 2 -d 4 -p ping -e 30000 -c 0 -i 17 -a 0 -x {2.0 3.0 -1 ------- null}
h -t 0.6 -s 2 -d 4 -p ping -e 30000 -c 0 -i 17 -a 0 -x {2.0 3.0 -1 ------- null}
r -t 0.601398009950249 -s 0 -d 4 -p ping -e 50000 -c 0 -i 16 -a 0 -x {0.0 5.0 -1 ------- null}
+ -t 0.601398009950249 -s 4 -d 5 -p ping -e 50000 -c 0 -i 16 -a 0 -x {0.0 5.0 -1 ------- null}
d -t 0.601398009950249 -s 4 -d 5 -p ping -e 50000 -c 0 -i 16 -a 0 -x {0.0 5.0 -1 ------- null}
r -t 0.6022 -s 2 -d 4 -p ping -e 30000 -c 0 -i 17 -a 0 -x {2.0 3.0 -1 ------- null}
+ -t 0.6022 -s 4 -d 3 -p ping -e 30000 -c 0 -i 17 -a 0 -x {2.0 3.0 -1 ------- null}
- -t 0.6022 -s 4 -d 3 -p ping -e 30000 -c 0 -i 17 -a 0 -x {2.0 3.0 -1 ------- null}
h -t 0.6022 -s 4 -d 3 -p ping -e 30000 -c 0 -i 17 -a 0 -x {2.0 3.0 -1 ------- null}
r -t 0.6044 -s 4 -d 3 -p ping -e 30000 -c 0 -i 17 -a 0 -x {2.0 3.0 -1 ------- null}
+ -t 0.6044 -s 3 -d 4 -p ping -e 64 -c 0 -i 18 -a 0 -x {3.0 2.0 -1 ------- null}
- -t 0.6044 -s 3 -d 4 -p ping -e 64 -c 0 -i 18 -a 0 -x {3.0 2.0 -1 ------- null}
h -t 0.6044 -s 3 -d 4 -p ping -e 64 -c 0 -i 18 -a 0 -x {3.0 2.0 -1 ------- null}
r -t 0.60540256 -s 3 -d 4 -p ping -e 64 -c 0 -i 18 -a 0 -x {3.0 2.0 -1 ------- null}
+ -t 0.60540256 -s 4 -d 2 -p ping -e 64 -c 0 -i 18 -a 0 -x {3.0 2.0 -1 ------- null}
- -t 0.60540256 -s 4 -d 2 -p ping -e 64 -c 0 -i 18 -a 0 -x {3.0 2.0 -1 ------- null}
h -t 0.60540256 -s 4 -d 2 -p ping -e 64 -c 0 -i 18 -a 0 -x {3.0 2.0 -1 ------- null}
r -t 0.60640512 -s 4 -d 2 -p ping -e 64 -c 0 -i 18 -a 0 -x {3.0 2.0 -1 ------- null}
+ -t 0.7 -s 0 -d 4 -p ping -e 50000 -c 0 -i 19 -a 0 -x {0.0 5.0 -1 ------- null}
- -t 0.7 -s 0 -d 4 -p ping -e 50000 -c 0 -i 19 -a 0 -x {0.0 5.0 -1 ------- null}
h -t 0.7 -s 0 -d 4 -p ping -e 50000 -c 0 -i 19 -a 0 -x {0.0 5.0 -1 ------- null}
+ -t 0.7 -s 2 -d 4 -p ping -e 30000 -c 0 -i 20 -a 0 -x {2.0 3.0 -1 ------- null}
- -t 0.7 -s 2 -d 4 -p ping -e 30000 -c 0 -i 20 -a 0 -x {2.0 3.0 -1 ------- null}
h -t 0.7 -s 2 -d 4 -p ping -e 30000 -c 0 -i 20 -a 0 -x {2.0 3.0 -1 ------- null}
r -t 0.701398009950249 -s 0 -d 4 -p ping -e 50000 -c 0 -i 19 -a 0 -x {0.0 5.0 -1 ------- null}
+ -t 0.701398009950249 -s 4 -d 5 -p ping -e 50000 -c 0 -i 19 -a 0 -x {0.0 5.0 -1 ------- null}
d -t 0.701398009950249 -s 4 -d 5 -p ping -e 50000 -c 0 -i 19 -a 0 -x {0.0 5.0 -1 ------- null}
r -t 0.7022 -s 2 -d 4 -p ping -e 30000 -c 0 -i 20 -a 0 -x {2.0 3.0 -1 ------- null}
+ -t 0.7022 -s 4 -d 3 -p ping -e 30000 -c 0 -i 20 -a 0 -x {2.0 3.0 -1 ------- null}
- -t 0.7022 -s 4 -d 3 -p ping -e 30000 -c 0 -i 20 -a 0 -x {2.0 3.0 -1 ------- null}
h -t 0.7022 -s 4 -d 3 -p ping -e 30000 -c 0 -i 20 -a 0 -x {2.0 3.0 -1 ------- null}
r -t 0.7044 -s 4 -d 3 -p ping -e 30000 -c 0 -i 20 -a 0 -x {2.0 3.0 -1 ------- null}
+ -t 0.7044 -s 3 -d 4 -p ping -e 64 -c 0 -i 21 -a 0 -x {3.0 2.0 -1 ------- null}
- -t 0.7044 -s 3 -d 4 -p ping -e 64 -c 0 -i 21 -a 0 -x {3.0 2.0 -1 ------- null}
h -t 0.7044 -s 3 -d 4 -p ping -e 64 -c 0 -i 21 -a 0 -x {3.0 2.0 -1 ------- null}
r -t 0.70540256 -s 3 -d 4 -p ping -e 64 -c 0 -i 21 -a 0 -x {3.0 2.0 -1 ------- null}
+ -t 0.70540256 -s 4 -d 2 -p ping -e 64 -c 0 -i 21 -a 0 -x {3.0 2.0 -1 ------- null}
- -t 0.70540256 -s 4 -d 2 -p ping -e 64 -c 0 -i 21 -a 0 -x {3.0 2.0 -1 ------- null}
h -t 0.70540256 -s 4 -d 2 -p ping -e 64 -c 0 -i 21 -a 0 -x {3.0 2.0 -1 ------- null}
r -t 0.70640512 -s 4 -d 2 -p ping -e 64 -c 0 -i 21 -a 0 -x {3.0 2.0 -1 ------- null}
+ -t 0.8 -s 0 -d 4 -p ping -e 50000 -c 0 -i 22 -a 0 -x {0.0 5.0 -1 ------- null}
- -t 0.8 -s 0 -d 4 -p ping -e 50000 -c 0 -i 22 -a 0 -x {0.0 5.0 -1 ------- null}
h -t 0.8 -s 0 -d 4 -p ping -e 50000 -c 0 -i 22 -a 0 -x {0.0 5.0 -1 ------- null}
+ -t 0.8 -s 2 -d 4 -p ping -e 30000 -c 0 -i 23 -a 0 -x {2.0 3.0 -1 ------- null}
- -t 0.8 -s 2 -d 4 -p ping -e 30000 -c 0 -i 23 -a 0 -x {2.0 3.0 -1 ------- null}
h -t 0.8 -s 2 -d 4 -p ping -e 30000 -c 0 -i 23 -a 0 -x {2.0 3.0 -1 ------- null}
r -t 0.801398009950249 -s 0 -d 4 -p ping -e 50000 -c 0 -i 22 -a 0 -x {0.0 5.0 -1 ------- null}
+ -t 0.801398009950249 -s 4 -d 5 -p ping -e 50000 -c 0 -i 22 -a 0 -x {0.0 5.0 -1 ------- null}
d -t 0.801398009950249 -s 4 -d 5 -p ping -e 50000 -c 0 -i 22 -a 0 -x {0.0 5.0 -1 ------- null}
r -t 0.8022 -s 2 -d 4 -p ping -e 30000 -c 0 -i 23 -a 0 -x {2.0 3.0 -1 ------- null}
+ -t 0.8022 -s 4 -d 3 -p ping -e 30000 -c 0 -i 23 -a 0 -x {2.0 3.0 -1 ------- null}
- -t 0.8022 -s 4 -d 3 -p ping -e 30000 -c 0 -i 23 -a 0 -x {2.0 3.0 -1 ------- null}
h -t 0.8022 -s 4 -d 3 -p ping -e 30000 -c 0 -i 23 -a 0 -x {2.0 3.0 -1 ------- null}
r -t 0.8044 -s 4 -d 3 -p ping -e 30000 -c 0 -i 23 -a 0 -x {2.0 3.0 -1 ------- null}
+ -t 0.8044 -s 3 -d 4 -p ping -e 64 -c 0 -i 24 -a 0 -x {3.0 2.0 -1 ------- null}
- -t 0.8044 -s 3 -d 4 -p ping -e 64 -c 0 -i 24 -a 0 -x {3.0 2.0 -1 ------- null}
h -t 0.8044 -s 3 -d 4 -p ping -e 64 -c 0 -i 24 -a 0 -x {3.0 2.0 -1 ------- null}
r -t 0.80540256 -s 3 -d 4 -p ping -e 64 -c 0 -i 24 -a 0 -x {3.0 2.0 -1 ------- null}
+ -t 0.80540256 -s 4 -d 2 -p ping -e 64 -c 0 -i 24 -a 0 -x {3.0 2.0 -1 ------- null}
- -t 0.80540256 -s 4 -d 2 -p ping -e 64 -c 0 -i 24 -a 0 -x {3.0 2.0 -1 ------- null}
h -t 0.80540256 -s 4 -d 2 -p ping -e 64 -c 0 -i 24 -a 0 -x {3.0 2.0 -1 ------- null}
r -t 0.80640512 -s 4 -d 2 -p ping -e 64 -c 0 -i 24 -a 0 -x {3.0 2.0 -1 ------- null}
+ -t 0.9 -s 0 -d 4 -p ping -e 50000 -c 0 -i 25 -a 0 -x {0.0 5.0 -1 ------- null}
- -t 0.9 -s 0 -d 4 -p ping -e 50000 -c 0 -i 25 -a 0 -x {0.0 5.0 -1 ------- null}
h -t 0.9 -s 0 -d 4 -p ping -e 50000 -c 0 -i 25 -a 0 -x {0.0 5.0 -1 ------- null}
+ -t 0.9 -s 2 -d 4 -p ping -e 30000 -c 0 -i 26 -a 0 -x {2.0 3.0 -1 ------- null}
- -t 0.9 -s 2 -d 4 -p ping -e 30000 -c 0 -i 26 -a 0 -x {2.0 3.0 -1 ------- null}
h -t 0.9 -s 2 -d 4 -p ping -e 30000 -c 0 -i 26 -a 0 -x {2.0 3.0 -1 ------- null}
- -t 0.901398009950249 -s 4 -d 5 -p ping -e 50000 -c 0 -i 12 -a 0 -x {0.0 5.0 -1 ------- null}
h -t 0.901398009950249 -s 4 -d 5 -p ping -e 50000 -c 0 -i 12 -a 0 -x {0.0 5.0 -1 ------- null}
r -t 0.901398009950249 -s 0 -d 4 -p ping -e 50000 -c 0 -i 25 -a 0 -x {0.0 5.0 -1 ------- null}
+ -t 0.901398009950249 -s 4 -d 5 -p ping -e 50000 -c 0 -i 25 -a 0 -x {0.0 5.0 -1 ------- null}
r -t 0.9022 -s 2 -d 4 -p ping -e 30000 -c 0 -i 26 -a 0 -x {2.0 3.0 -1 ------- null}
+ -t 0.9022 -s 4 -d 3 -p ping -e 30000 -c 0 -i 26 -a 0 -x {2.0 3.0 -1 ------- null}
- -t 0.9022 -s 4 -d 3 -p ping -e 30000 -c 0 -i 26 -a 0 -x {2.0 3.0 -1 ------- null}
h -t 0.9022 -s 4 -d 3 -p ping -e 30000 -c 0 -i 26 -a 0 -x {2.0 3.0 -1 ------- null}
r -t 0.902398009950249 -s 4 -d 5 -p ping -e 50000 -c 0 -i 3 -a 0 -x {0.0 5.0 -1 ------- null}
+ -t 0.902398009950249 -s 5 -d 4 -p ping -e 64 -c 0 -i 27 -a 0 -x {5.0 0.0 -1 ------- null}
- -t 0.902398009950249 -s 5 -d 4 -p ping -e 64 -c 0 -i 27 -a 0 -x {5.0 0.0 -1 ------- null}
h -t 0.902398009950249 -s 5 -d 4 -p ping -e 64 -c 0 -i 27 -a 0 -x {5.0 0.0 -1 ------- null}
r -t 0.903910009950249 -s 5 -d 4 -p ping -e 64 -c 0 -i 27 -a 0 -x {5.0 0.0 -1 ------- null}
+ -t 0.903910009950249 -s 4 -d 0 -p ping -e 64 -c 0 -i 27 -a 0 -x {5.0 0.0 -1 ------- null}
- -t 0.903910009950249 -s 4 -d 0 -p ping -e 64 -c 0 -i 27 -a 0 -x {5.0 0.0 -1 ------- null}
h -t 0.903910009950249 -s 4 -d 0 -p ping -e 64 -c 0 -i 27 -a 0 -x {5.0 0.0 -1 ------- null}
r -t 0.9044 -s 4 -d 3 -p ping -e 30000 -c 0 -i 26 -a 0 -x {2.0 3.0 -1 ------- null}
+ -t 0.9044 -s 3 -d 4 -p ping -e 64 -c 0 -i 28 -a 0 -x {3.0 2.0 -1 ------- null}
- -t 0.9044 -s 3 -d 4 -p ping -e 64 -c 0 -i 28 -a 0 -x {3.0 2.0 -1 ------- null}
h -t 0.9044 -s 3 -d 4 -p ping -e 64 -c 0 -i 28 -a 0 -x {3.0 2.0 -1 ------- null}
r -t 0.904910519402985 -s 4 -d 0 -p ping -e 64 -c 0 -i 27 -a 0 -x {5.0 0.0 -1 ------- null}
r -t 0.90540256 -s 3 -d 4 -p ping -e 64 -c 0 -i 28 -a 0 -x {3.0 2.0 -1 ------- null}
+ -t 0.90540256 -s 4 -d 2 -p ping -e 64 -c 0 -i 28 -a 0 -x {3.0 2.0 -1 ------- null}
- -t 0.90540256 -s 4 -d 2 -p ping -e 64 -c 0 -i 28 -a 0 -x {3.0 2.0 -1 ------- null}
h -t 0.90540256 -s 4 -d 2 -p ping -e 64 -c 0 -i 28 -a 0 -x {3.0 2.0 -1 ------- null}
r -t 0.90640512 -s 4 -d 2 -p ping -e 64 -c 0 -i 28 -a 0 -x {3.0 2.0 -1 ------- null}
+ -t 1 -s 0 -d 4 -p ping -e 50000 -c 0 -i 29 -a 0 -x {0.0 5.0 -1 ------- null}
- -t 1 -s 0 -d 4 -p ping -e 50000 -c 0 -i 29 -a 0 -x {0.0 5.0 -1 ------- null}
h -t 1 -s 0 -d 4 -p ping -e 50000 -c 0 -i 29 -a 0 -x {0.0 5.0 -1 ------- null}
+ -t 1 -s 2 -d 4 -p ping -e 30000 -c 0 -i 30 -a 0 -x {2.0 3.0 -1 ------- null}
- -t 1 -s 2 -d 4 -p ping -e 30000 -c 0 -i 30 -a 0 -x {2.0 3.0 -1 ------- null}
h -t 1 -s 2 -d 4 -p ping -e 30000 -c 0 -i 30 -a 0 -x {2.0 3.0 -1 ------- null}
r -t 1.00139800995025 -s 0 -d 4 -p ping -e 50000 -c 0 -i 29 -a 0 -x {0.0 5.0 -1 ------- null}
+ -t 1.00139800995025 -s 4 -d 5 -p ping -e 50000 -c 0 -i 29 -a 0 -x {0.0 5.0 -1 ------- null}
d -t 1.00139800995025 -s 4 -d 5 -p ping -e 50000 -c 0 -i 29 -a 0 -x {0.0 5.0 -1 ------- null}
r -t 1.0022 -s 2 -d 4 -p ping -e 30000 -c 0 -i 30 -a 0 -x {2.0 3.0 -1 ------- null}
+ -t 1.0022 -s 4 -d 3 -p ping -e 30000 -c 0 -i 30 -a 0 -x {2.0 3.0 -1 ------- null}
- -t 1.0022 -s 4 -d 3 -p ping -e 30000 -c 0 -i 30 -a 0 -x {2.0 3.0 -1 ------- null}
h -t 1.0022 -s 4 -d 3 -p ping -e 30000 -c 0 -i 30 -a 0 -x {2.0 3.0 -1 ------- null}
r -t 1.0044 -s 4 -d 3 -p ping -e 30000 -c 0 -i 30 -a 0 -x {2.0 3.0 -1 ------- null}
+ -t 1.0044 -s 3 -d 4 -p ping -e 64 -c 0 -i 31 -a 0 -x {3.0 2.0 -1 ------- null}
- -t 1.0044 -s 3 -d 4 -p ping -e 64 -c 0 -i 31 -a 0 -x {3.0 2.0 -1 ------- null}
h -t 1.0044 -s 3 -d 4 -p ping -e 64 -c 0 -i 31 -a 0 -x {3.0 2.0 -1 ------- null}
r -t 1.00540256 -s 3 -d 4 -p ping -e 64 -c 0 -i 31 -a 0 -x {3.0 2.0 -1 ------- null}
+ -t 1.00540256 -s 4 -d 2 -p ping -e 64 -c 0 -i 31 -a 0 -x {3.0 2.0 -1 ------- null}
- -t 1.00540256 -s 4 -d 2 -p ping -e 64 -c 0 -i 31 -a 0 -x {3.0 2.0 -1 ------- null}
h -t 1.00540256 -s 4 -d 2 -p ping -e 64 -c 0 -i 31 -a 0 -x {3.0 2.0 -1 ------- null}
r -t 1.00640512 -s 4 -d 2 -p ping -e 64 -c 0 -i 31 -a 0 -x {3.0 2.0 -1 ------- null}
+ -t 1.1 -s 0 -d 4 -p ping -e 50000 -c 0 -i 32 -a 0 -x {0.0 5.0 -1 ------- null}
- -t 1.1 -s 0 -d 4 -p ping -e 50000 -c 0 -i 32 -a 0 -x {0.0 5.0 -1 ------- null}
h -t 1.1 -s 0 -d 4 -p ping -e 50000 -c 0 -i 32 -a 0 -x {0.0 5.0 -1 ------- null}
+ -t 1.1 -s 2 -d 4 -p ping -e 30000 -c 0 -i 33 -a 0 -x {2.0 3.0 -1 ------- null}
- -t 1.1 -s 2 -d 4 -p ping -e 30000 -c 0 -i 33 -a 0 -x {2.0 3.0 -1 ------- null}
h -t 1.1 -s 2 -d 4 -p ping -e 30000 -c 0 -i 33 -a 0 -x {2.0 3.0 -1 ------- null}
r -t 1.10139800995025 -s 0 -d 4 -p ping -e 50000 -c 0 -i 32 -a 0 -x {0.0 5.0 -1 ------- null}
+ -t 1.10139800995025 -s 4 -d 5 -p ping -e 50000 -c 0 -i 32 -a 0 -x {0.0 5.0 -1 ------- null}
d -t 1.10139800995025 -s 4 -d 5 -p ping -e 50000 -c 0 -i 32 -a 0 -x {0.0 5.0 -1 ------- null}
r -t 1.1022 -s 2 -d 4 -p ping -e 30000 -c 0 -i 33 -a 0 -x {2.0 3.0 -1 ------- null}
+ -t 1.1022 -s 4 -d 3 -p ping -e 30000 -c 0 -i 33 -a 0 -x {2.0 3.0 -1 ------- null}
- -t 1.1022 -s 4 -d 3 -p ping -e 30000 -c 0 -i 33 -a 0 -x {2.0 3.0 -1 ------- null}
h -t 1.1022 -s 4 -d 3 -p ping -e 30000 -c 0 -i 33 -a 0 -x {2.0 3.0 -1 ------- null}
r -t 1.1044 -s 4 -d 3 -p ping -e 30000 -c 0 -i 33 -a 0 -x {2.0 3.0 -1 ------- null}
+ -t 1.1044 -s 3 -d 4 -p ping -e 64 -c 0 -i 34 -a 0 -x {3.0 2.0 -1 ------- null}
- -t 1.1044 -s 3 -d 4 -p ping -e 64 -c 0 -i 34 -a 0 -x {3.0 2.0 -1 ------- null}
h -t 1.1044 -s 3 -d 4 -p ping -e 64 -c 0 -i 34 -a 0 -x {3.0 2.0 -1 ------- null}
r -t 1.10540256 -s 3 -d 4 -p ping -e 64 -c 0 -i 34 -a 0 -x {3.0 2.0 -1 ------- null}
+ -t 1.10540256 -s 4 -d 2 -p ping -e 64 -c 0 -i 34 -a 0 -x {3.0 2.0 -1 ------- null}
- -t 1.10540256 -s 4 -d 2 -p ping -e 64 -c 0 -i 34 -a 0 -x {3.0 2.0 -1 ------- null}
h -t 1.10540256 -s 4 -d 2 -p ping -e 64 -c 0 -i 34 -a 0 -x {3.0 2.0 -1 ------- null}
r -t 1.10640512 -s 4 -d 2 -p ping -e 64 -c 0 -i 34 -a 0 -x {3.0 2.0 -1 ------- null}
+ -t 1.2 -s 0 -d 4 -p ping -e 50000 -c 0 -i 35 -a 0 -x {0.0 5.0 -1 ------- null}
- -t 1.2 -s 0 -d 4 -p ping -e 50000 -c 0 -i 35 -a 0 -x {0.0 5.0 -1 ------- null}
h -t 1.2 -s 0 -d 4 -p ping -e 50000 -c 0 -i 35 -a 0 -x {0.0 5.0 -1 ------- null}
+ -t 1.2 -s 2 -d 4 -p ping -e 30000 -c 0 -i 36 -a 0 -x {2.0 3.0 -1 ------- null}
- -t 1.2 -s 2 -d 4 -p ping -e 30000 -c 0 -i 36 -a 0 -x {2.0 3.0 -1 ------- null}
h -t 1.2 -s 2 -d 4 -p ping -e 30000 -c 0 -i 36 -a 0 -x {2.0 3.0 -1 ------- null}
r -t 1.20139800995025 -s 0 -d 4 -p ping -e 50000 -c 0 -i 35 -a 0 -x {0.0 5.0 -1 ------- null}
+ -t 1.20139800995025 -s 4 -d 5 -p ping -e 50000 -c 0 -i 35 -a 0 -x {0.0 5.0 -1 ------- null}
d -t 1.20139800995025 -s 4 -d 5 -p ping -e 50000 -c 0 -i 35 -a 0 -x {0.0 5.0 -1 ------- null}
r -t 1.2022 -s 2 -d 4 -p ping -e 30000 -c 0 -i 36 -a 0 -x {2.0 3.0 -1 ------- null}
+ -t 1.2022 -s 4 -d 3 -p ping -e 30000 -c 0 -i 36 -a 0 -x {2.0 3.0 -1 ------- null}
- -t 1.2022 -s 4 -d 3 -p ping -e 30000 -c 0 -i 36 -a 0 -x {2.0 3.0 -1 ------- null}
h -t 1.2022 -s 4 -d 3 -p ping -e 30000 -c 0 -i 36 -a 0 -x {2.0 3.0 -1 ------- null}
r -t 1.2044 -s 4 -d 3 -p ping -e 30000 -c 0 -i 36 -a 0 -x {2.0 3.0 -1 ------- null}
+ -t 1.2044 -s 3 -d 4 -p ping -e 64 -c 0 -i 37 -a 0 -x {3.0 2.0 -1 ------- null}
- -t 1.2044 -s 3 -d 4 -p ping -e 64 -c 0 -i 37 -a 0 -x {3.0 2.0 -1 ------- null}
h -t 1.2044 -s 3 -d 4 -p ping -e 64 -c 0 -i 37 -a 0 -x {3.0 2.0 -1 ------- null}
r -t 1.20540256 -s 3 -d 4 -p ping -e 64 -c 0 -i 37 -a 0 -x {3.0 2.0 -1 ------- null}
+ -t 1.20540256 -s 4 -d 2 -p ping -e 64 -c 0 -i 37 -a 0 -x {3.0 2.0 -1 ------- null}
- -t 1.20540256 -s 4 -d 2 -p ping -e 64 -c 0 -i 37 -a 0 -x {3.0 2.0 -1 ------- null}
h -t 1.20540256 -s 4 -d 2 -p ping -e 64 -c 0 -i 37 -a 0 -x {3.0 2.0 -1 ------- null}
r -t 1.20640512 -s 4 -d 2 -p ping -e 64 -c 0 -i 37 -a 0 -x {3.0 2.0 -1 ------- null}
+ -t 1.3 -s 0 -d 4 -p ping -e 50000 -c 0 -i 38 -a 0 -x {0.0 5.0 -1 ------- null}
- -t 1.3 -s 0 -d 4 -p ping -e 50000 -c 0 -i 38 -a 0 -x {0.0 5.0 -1 ------- null}
h -t 1.3 -s 0 -d 4 -p ping -e 50000 -c 0 -i 38 -a 0 -x {0.0 5.0 -1 ------- null}
+ -t 1.3 -s 2 -d 4 -p ping -e 30000 -c 0 -i 39 -a 0 -x {2.0 3.0 -1 ------- null}
- -t 1.3 -s 2 -d 4 -p ping -e 30000 -c 0 -i 39 -a 0 -x {2.0 3.0 -1 ------- null}
h -t 1.3 -s 2 -d 4 -p ping -e 30000 -c 0 -i 39 -a 0 -x {2.0 3.0 -1 ------- null}
- -t 1.30139800995025 -s 4 -d 5 -p ping -e 50000 -c 0 -i 25 -a 0 -x {0.0 5.0 -1 ------- null}
h -t 1.30139800995025 -s 4 -d 5 -p ping -e 50000 -c 0 -i 25 -a 0 -x {0.0 5.0 -1 ------- null}
r -t 1.30139800995025 -s 0 -d 4 -p ping -e 50000 -c 0 -i 38 -a 0 -x {0.0 5.0 -1 ------- null}
+ -t 1.30139800995025 -s 4 -d 5 -p ping -e 50000 -c 0 -i 38 -a 0 -x {0.0 5.0 -1 ------- null}
r -t 1.3022 -s 2 -d 4 -p ping -e 30000 -c 0 -i 39 -a 0 -x {2.0 3.0 -1 ------- null}
+ -t 1.3022 -s 4 -d 3 -p ping -e 30000 -c 0 -i 39 -a 0 -x {2.0 3.0 -1 ------- null}
- -t 1.3022 -s 4 -d 3 -p ping -e 30000 -c 0 -i 39 -a 0 -x {2.0 3.0 -1 ------- null}
h -t 1.3022 -s 4 -d 3 -p ping -e 30000 -c 0 -i 39 -a 0 -x {2.0 3.0 -1 ------- null}
r -t 1.30239800995025 -s 4 -d 5 -p ping -e 50000 -c 0 -i 12 -a 0 -x {0.0 5.0 -1 ------- null}
+ -t 1.30239800995025 -s 5 -d 4 -p ping -e 64 -c 0 -i 40 -a 0 -x {5.0 0.0 -1 ------- null}
- -t 1.30239800995025 -s 5 -d 4 -p ping -e 64 -c 0 -i 40 -a 0 -x {5.0 0.0 -1 ------- null}
h -t 1.30239800995025 -s 5 -d 4 -p ping -e 64 -c 0 -i 40 -a 0 -x {5.0 0.0 -1 ------- null}
r -t 1.30391000995025 -s 5 -d 4 -p ping -e 64 -c 0 -i 40 -a 0 -x {5.0 0.0 -1 ------- null}
+ -t 1.30391000995025 -s 4 -d 0 -p ping -e 64 -c 0 -i 40 -a 0 -x {5.0 0.0 -1 ------- null}
- -t 1.30391000995025 -s 4 -d 0 -p ping -e 64 -c 0 -i 40 -a 0 -x {5.0 0.0 -1 ------- null}
h -t 1.30391000995025 -s 4 -d 0 -p ping -e 64 -c 0 -i 40 -a 0 -x {5.0 0.0 -1 ------- null}
r -t 1.3044 -s 4 -d 3 -p ping -e 30000 -c 0 -i 39 -a 0 -x {2.0 3.0 -1 ------- null}
+ -t 1.3044 -s 3 -d 4 -p ping -e 64 -c 0 -i 41 -a 0 -x {3.0 2.0 -1 ------- null}
- -t 1.3044 -s 3 -d 4 -p ping -e 64 -c 0 -i 41 -a 0 -x {3.0 2.0 -1 ------- null}
h -t 1.3044 -s 3 -d 4 -p ping -e 64 -c 0 -i 41 -a 0 -x {3.0 2.0 -1 ------- null}
r -t 1.30491051940299 -s 4 -d 0 -p ping -e 64 -c 0 -i 40 -a 0 -x {5.0 0.0 -1 ------- null}
r -t 1.30540256 -s 3 -d 4 -p ping -e 64 -c 0 -i 41 -a 0 -x {3.0 2.0 -1 ------- null}
+ -t 1.30540256 -s 4 -d 2 -p ping -e 64 -c 0 -i 41 -a 0 -x {3.0 2.0 -1 ------- null}
- -t 1.30540256 -s 4 -d 2 -p ping -e 64 -c 0 -i 41 -a 0 -x {3.0 2.0 -1 ------- null}
h -t 1.30540256 -s 4 -d 2 -p ping -e 64 -c 0 -i 41 -a 0 -x {3.0 2.0 -1 ------- null}
r -t 1.30640512 -s 4 -d 2 -p ping -e 64 -c 0 -i 41 -a 0 -x {3.0 2.0 -1 ------- null}
+ -t 1.4 -s 0 -d 4 -p ping -e 50000 -c 0 -i 42 -a 0 -x {0.0 5.0 -1 ------- null}
- -t 1.4 -s 0 -d 4 -p ping -e 50000 -c 0 -i 42 -a 0 -x {0.0 5.0 -1 ------- null}
h -t 1.4 -s 0 -d 4 -p ping -e 50000 -c 0 -i 42 -a 0 -x {0.0 5.0 -1 ------- null}
+ -t 1.4 -s 2 -d 4 -p ping -e 30000 -c 0 -i 43 -a 0 -x {2.0 3.0 -1 ------- null}
- -t 1.4 -s 2 -d 4 -p ping -e 30000 -c 0 -i 43 -a 0 -x {2.0 3.0 -1 ------- null}
h -t 1.4 -s 2 -d 4 -p ping -e 30000 -c 0 -i 43 -a 0 -x {2.0 3.0 -1 ------- null}
r -t 1.40139800995025 -s 0 -d 4 -p ping -e 50000 -c 0 -i 42 -a 0 -x {0.0 5.0 -1 ------- null}
+ -t 1.40139800995025 -s 4 -d 5 -p ping -e 50000 -c 0 -i 42 -a 0 -x {0.0 5.0 -1 ------- null}
d -t 1.40139800995025 -s 4 -d 5 -p ping -e 50000 -c 0 -i 42 -a 0 -x {0.0 5.0 -1 ------- null}
r -t 1.4022 -s 2 -d 4 -p ping -e 30000 -c 0 -i 43 -a 0 -x {2.0 3.0 -1 ------- null}
+ -t 1.4022 -s 4 -d 3 -p ping -e 30000 -c 0 -i 43 -a 0 -x {2.0 3.0 -1 ------- null}
- -t 1.4022 -s 4 -d 3 -p ping -e 30000 -c 0 -i 43 -a 0 -x {2.0 3.0 -1 ------- null}
h -t 1.4022 -s 4 -d 3 -p ping -e 30000 -c 0 -i 43 -a 0 -x {2.0 3.0 -1 ------- null}
r -t 1.4044 -s 4 -d 3 -p ping -e 30000 -c 0 -i 43 -a 0 -x {2.0 3.0 -1 ------- null}
+ -t 1.4044 -s 3 -d 4 -p ping -e 64 -c 0 -i 44 -a 0 -x {3.0 2.0 -1 ------- null}
- -t 1.4044 -s 3 -d 4 -p ping -e 64 -c 0 -i 44 -a 0 -x {3.0 2.0 -1 ------- null}
h -t 1.4044 -s 3 -d 4 -p ping -e 64 -c 0 -i 44 -a 0 -x {3.0 2.0 -1 ------- null}
r -t 1.40540256 -s 3 -d 4 -p ping -e 64 -c 0 -i 44 -a 0 -x {3.0 2.0 -1 ------- null}
+ -t 1.40540256 -s 4 -d 2 -p ping -e 64 -c 0 -i 44 -a 0 -x {3.0 2.0 -1 ------- null}
- -t 1.40540256 -s 4 -d 2 -p ping -e 64 -c 0 -i 44 -a 0 -x {3.0 2.0 -1 ------- null}
h -t 1.40540256 -s 4 -d 2 -p ping -e 64 -c 0 -i 44 -a 0 -x {3.0 2.0 -1 ------- null}
r -t 1.40640512 -s 4 -d 2 -p ping -e 64 -c 0 -i 44 -a 0 -x {3.0 2.0 -1 ------- null}
+ -t 1.5 -s 0 -d 4 -p ping -e 50000 -c 0 -i 45 -a 0 -x {0.0 5.0 -1 ------- null}
- -t 1.5 -s 0 -d 4 -p ping -e 50000 -c 0 -i 45 -a 0 -x {0.0 5.0 -1 ------- null}
h -t 1.5 -s 0 -d 4 -p ping -e 50000 -c 0 -i 45 -a 0 -x {0.0 5.0 -1 ------- null}
+ -t 1.5 -s 2 -d 4 -p ping -e 30000 -c 0 -i 46 -a 0 -x {2.0 3.0 -1 ------- null}
- -t 1.5 -s 2 -d 4 -p ping -e 30000 -c 0 -i 46 -a 0 -x {2.0 3.0 -1 ------- null}
h -t 1.5 -s 2 -d 4 -p ping -e 30000 -c 0 -i 46 -a 0 -x {2.0 3.0 -1 ------- null}
r -t 1.50139800995025 -s 0 -d 4 -p ping -e 50000 -c 0 -i 45 -a 0 -x {0.0 5.0 -1 ------- null}