+ 0.1 0 4 ping 50000 ------- 0 0.0 5.0 -1 0
- 0.1 0 4 ping 50000 ------- 0 0.0 5.0 -1 0
+ 0.1 2 4 ping 30000 ------- 0 2.0 3.0 -1 1
- 0.1 2 4 ping 30000 ------- 0 2.0 3.0 -1 1
r 0.101398 0 4 ping 50000 ------- 0 0.0 5.0 -1 0
+ 0.101398 4 5 ping 50000 ------- 0 0.0 5.0 -1 0
- 0.101398 4 5 ping 50000 ------- 0 0.0 5.0 -1 0
r 0.1022 2 4 ping 30000 ------- 0 2.0 3.0 -1 1
+ 0.1022 4 3 ping 30000 ------- 0 2.0 3.0 -1 1
- 0.1022 4 3 ping 30000 ------- 0 2.0 3.0 -1 1
r 0.1044 4 3 ping 30000 ------- 0 2.0 3.0 -1 1
+ 0.1044 3 4 ping 64 ------- 0 3.0 2.0 -1 2
- 0.1044 3 4 ping 64 ------- 0 3.0 2.0 -1 2
r 0.105403 3 4 ping 64 ------- 0 3.0 2.0 -1 2
+ 0.105403 4 2 ping 64 ------- 0 3.0 2.0 -1 2
- 0.105403 4 2 ping 64 ------- 0 3.0 2.0 -1 2
r 0.106405 4 2 ping 64 ------- 0 3.0 2.0 -1 2
+ 0.2 0 4 ping 50000 ------- 0 0.0 5.0 -1 3
- 0.2 0 4 ping 50000 ------- 0 0.0 5.0 -1 3
+ 0.2 2 4 ping 30000 ------- 0 2.0 3.0 -1 4
- 0.2 2 4 ping 30000 ------- 0 2.0 3.0 -1 4
r 0.201398 0 4 ping 50000 ------- 0 0.0 5.0 -1 3
+ 0.201398 4 5 ping 50000 ------- 0 0.0 5.0 -1 3
r 0.2022 2 4 ping 30000 ------- 0 2.0 3.0 -1 4
+ 0.2022 4 3 ping 30000 ------- 0 2.0 3.0 -1 4
- 0.2022 4 3 ping 30000 ------- 0 2.0 3.0 -1 4
r 0.2044 4 3 ping 30000 ------- 0 2.0 3.0 -1 4
+ 0.2044 3 4 ping 64 ------- 0 3.0 2.0 -1 5
- 0.2044 3 4 ping 64 ------- 0 3.0 2.0 -1 5
r 0.205403 3 4 ping 64 ------- 0 3.0 2.0 -1 5
+ 0.205403 4 2 ping 64 ------- 0 3.0 2.0 -1 5
- 0.205403 4 2 ping 64 ------- 0 3.0 2.0 -1 5
r 0.206405 4 2 ping 64 ------- 0 3.0 2.0 -1 5
+ 0.3 0 4 ping 50000 ------- 0 0.0 5.0 -1 6
- 0.3 0 4 ping 50000 ------- 0 0.0 5.0 -1 6
+ 0.3 2 4 ping 30000 ------- 0 2.0 3.0 -1 7
- 0.3 2 4 ping 30000 ------- 0 2.0 3.0 -1 7
r 0.301398 0 4 ping 50000 ------- 0 0.0 5.0 -1 6
+ 0.301398 4 5 ping 50000 ------- 0 0.0 5.0 -1 6
d 0.301398 4 5 ping 50000 ------- 0 0.0 5.0 -1 6
r 0.3022 2 4 ping 30000 ------- 0 2.0 3.0 -1 7
+ 0.3022 4 3 ping 30000 ------- 0 2.0 3.0 -1 7
- 0.3022 4 3 ping 30000 ------- 0 2.0 3.0 -1 7
r 0.3044 4 3 ping 30000 ------- 0 2.0 3.0 -1 7
+ 0.3044 3 4 ping 64 ------- 0 3.0 2.0 -1 8
- 0.3044 3 4 ping 64 ------- 0 3.0 2.0 -1 8
r 0.305403 3 4 ping 64 ------- 0 3.0 2.0 -1 8
+ 0.305403 4 2 ping 64 ------- 0 3.0 2.0 -1 8
- 0.305403 4 2 ping 64 ------- 0 3.0 2.0 -1 8
r 0.306405 4 2 ping 64 ------- 0 3.0 2.0 -1 8
+ 0.4 0 4 ping 50000 ------- 0 0.0 5.0 -1 9
- 0.4 0 4 ping 50000 ------- 0 0.0 5.0 -1 9
+ 0.4 2 4 ping 30000 ------- 0 2.0 3.0 -1 10
- 0.4 2 4 ping 30000 ------- 0 2.0 3.0 -1 10
r 0.401398 0 4 ping 50000 ------- 0 0.0 5.0 -1 9
+ 0.401398 4 5 ping 50000 ------- 0 0.0 5.0 -1 9
d 0.401398 4 5 ping 50000 ------- 0 0.0 5.0 -1 9
r 0.4022 2 4 ping 30000 ------- 0 2.0 3.0 -1 10
+ 0.4022 4 3 ping 30000 ------- 0 2.0 3.0 -1 10
- 0.4022 4 3 ping 30000 ------- 0 2.0 3.0 -1 10
r 0.4044 4 3 ping 30000 ------- 0 2.0 3.0 -1 10
+ 0.4044 3 4 ping 64 ------- 0 3.0 2.0 -1 11
- 0.4044 3 4 ping 64 ------- 0 3.0 2.0 -1 11
r 0.405403 3 4 ping 64 ------- 0 3.0 2.0 -1 11
+ 0.405403 4 2 ping 64 ------- 0 3.0 2.0 -1 11
- 0.405403 4 2 ping 64 ------- 0 3.0 2.0 -1 11
r 0.406405 4 2 ping 64 ------- 0 3.0 2.0 -1 11
+ 0.5 0 4 ping 50000 ------- 0 0.0 5.0 -1 12
- 0.5 0 4 ping 50000 ------- 0 0.0 5.0 -1 12
+ 0.5 2 4 ping 30000 ------- 0 2.0 3.0 -1 13
- 0.5 2 4 ping 30000 ------- 0 2.0 3.0 -1 13
- 0.501398 4 5 ping 50000 ------- 0 0.0 5.0 -1 3
r 0.501398 0 4 ping 50000 ------- 0 0.0 5.0 -1 12
+ 0.501398 4 5 ping 50000 ------- 0 0.0 5.0 -1 12
r 0.5022 2 4 ping 30000 ------- 0 2.0 3.0 -1 13
+ 0.5022 4 3 ping 30000 ------- 0 2.0 3.0 -1 13
- 0.5022 4 3 ping 30000 ------- 0 2.0 3.0 -1 13
r 0.502398 4 5 ping 50000 ------- 0 0.0 5.0 -1 0
+ 0.502398 5 4 ping 64 ------- 0 5.0 0.0 -1 14
- 0.502398 5 4 ping 64 ------- 0 5.0 0.0 -1 14
r 0.50391 5 4 ping 64 ------- 0 5.0 0.0 -1 14
+ 0.50391 4 0 ping 64 ------- 0 5.0 0.0 -1 14
- 0.50391 4 0 ping 64 ------- 0 5.0 0.0 -1 14
r 0.5044 4 3 ping 30000 ------- 0 2.0 3.0 -1 13
+ 0.5044 3 4 ping 64 ------- 0 3.0 2.0 -1 15
- 0.5044 3 4 ping 64 ------- 0 3.0 2.0 -1 15
r 0.504911 4 0 ping 64 ------- 0 5.0 0.0 -1 14
r 0.505403 3 4 ping 64 ------- 0 3.0 2.0 -1 15
+ 0.505403 4 2 ping 64 ------- 0 3.0 2.0 -1 15
- 0.505403 4 2 ping 64 ------- 0 3.0 2.0 -1 15
r 0.506405 4 2 ping 64 ------- 0 3.0 2.0 -1 15
+ 0.6 0 4 ping 50000 ------- 0 0.0 5.0 -1 16
- 0.6 0 4 ping 50000 ------- 0 0.0 5.0 -1 16
+ 0.6 2 4 ping 30000 ------- 0 2.0 3.0 -1 17
- 0.6 2 4 ping 30000 ------- 0 2.0 3.0 -1 17
r 0.601398 0 4 ping 50000 ------- 0 0.0 5.0 -1 16
+ 0.601398 4 5 ping 50000 ------- 0 0.0 5.0 -1 16
d 0.601398 4 5 ping 50000 ------- 0 0.0 5.0 -1 16
r 0.6022 2 4 ping 30000 ------- 0 2.0 3.0 -1 17
+ 0.6022 4 3 ping 30000 ------- 0 2.0 3.0 -1 17
- 0.6022 4 3 ping 30000 ------- 0 2.0 3.0 -1 17
r 0.6044 4 3 ping 30000 ------- 0 2.0 3.0 -1 17
+ 0.6044 3 4 ping 64 ------- 0 3.0 2.0 -1 18
- 0.6044 3 4 ping 64 ------- 0 3.0 2.0 -1 18
r 0.605403 3 4 ping 64 ------- 0 3.0 2.0 -1 18
+ 0.605403 4 2 ping 64 ------- 0 3.0 2.0 -1 18
- 0.605403 4 2 ping 64 ------- 0 3.0 2.0 -1 18
r 0.606405 4 2 ping 64 ------- 0 3.0 2.0 -1 18
+ 0.7 0 4 ping 50000 ------- 0 0.0 5.0 -1 19
- 0.7 0 4 ping 50000 ------- 0 0.0 5.0 -1 19
+ 0.7 2 4 ping 30000 ------- 0 2.0 3.0 -1 20
- 0.7 2 4 ping 30000 ------- 0 2.0 3.0 -1 20
r 0.701398 0 4 ping 50000 ------- 0 0.0 5.0 -1 19
+ 0.701398 4 5 ping 50000 ------- 0 0.0 5.0 -1 19
d 0.701398 4 5 ping 50000 ------- 0 0.0 5.0 -1 19
r 0.7022 2 4 ping 30000 ------- 0 2.0 3.0 -1 20
+ 0.7022 4 3 ping 30000 ------- 0 2.0 3.0 -1 20
- 0.7022 4 3 ping 30000 ------- 0 2.0 3.0 -1 20
r 0.7044 4 3 ping 30000 ------- 0 2.0 3.0 -1 20
+ 0.7044 3 4 ping 64 ------- 0 3.0 2.0 -1 21
- 0.7044 3 4 ping 64 ------- 0 3.0 2.0 -1 21
r 0.705403 3 4 ping 64 ------- 0 3.0 2.0 -1 21
+ 0.705403 4 2 ping 64 ------- 0 3.0 2.0 -1 21
- 0.705403 4 2 ping 64 ------- 0 3.0 2.0 -1 21
r 0.706405 4 2 ping 64 ------- 0 3.0 2.0 -1 21
+ 0.8 0 4 ping 50000 ------- 0 0.0 5.0 -1 22
- 0.8 0 4 ping 50000 ------- 0 0.0 5.0 -1 22
+ 0.8 2 4 ping 30000 ------- 0 2.0 3.0 -1 23
- 0.8 2 4 ping 30000 ------- 0 2.0 3.0 -1 23
r 0.801398 0 4 ping 50000 ------- 0 0.0 5.0 -1 22
+ 0.801398 4 5 ping 50000 ------- 0 0.0 5.0 -1 22
d 0.801398 4 5 ping 50000 ------- 0 0.0 5.0 -1 22
r 0.8022 2 4 ping 30000 ------- 0 2.0 3.0 -1 23
+ 0.8022 4 3 ping 30000 ------- 0 2.0 3.0 -1 23
- 0.8022 4 3 ping 30000 ------- 0 2.0 3.0 -1 23
r 0.8044 4 3 ping 30000 ------- 0 2.0 3.0 -1 23
+ 0.8044 3 4 ping 64 ------- 0 3.0 2.0 -1 24
- 0.8044 3 4 ping 64 ------- 0 3.0 2.0 -1 24
r 0.805403 3 4 ping 64 ------- 0 3.0 2.0 -1 24
+ 0.805403 4 2 ping 64 ------- 0 3.0 2.0 -1 24
- 0.805403 4 2 ping 64 ------- 0 3.0 2.0 -1 24
r 0.806405 4 2 ping 64 ------- 0 3.0 2.0 -1 24
+ 0.9 0 4 ping 50000 ------- 0 0.0 5.0 -1 25
- 0.9 0 4 ping 50000 ------- 0 0.0 5.0 -1 25
+ 0.9 2 4 ping 30000 ------- 0 2.0 3.0 -1 26
- 0.9 2 4 ping 30000 ------- 0 2.0 3.0 -1 26
- 0.901398 4 5 ping 50000 ------- 0 0.0 5.0 -1 12
r 0.901398 0 4 ping 50000 ------- 0 0.0 5.0 -1 25
+ 0.901398 4 5 ping 50000 ------- 0 0.0 5.0 -1 25
r 0.9022 2 4 ping 30000 ------- 0 2.0 3.0 -1 26
+ 0.9022 4 3 ping 30000 ------- 0 2.0 3.0 -1 26
- 0.9022 4 3 ping 30000 ------- 0 2.0 3.0 -1 26
r 0.902398 4 5 ping 50000 ------- 0 0.0 5.0 -1 3
+ 0.902398 5 4 ping 64 ------- 0 5.0 0.0 -1 27
- 0.902398 5 4 ping 64 ------- 0 5.0 0.0 -1 27
r 0.90391 5 4 ping 64 ------- 0 5.0 0.0 -1 27
+ 0.90391 4 0 ping 64 ------- 0 5.0 0.0 -1 27
- 0.90391 4 0 ping 64 ------- 0 5.0 0.0 -1 27
r 0.9044 4 3 ping 30000 ------- 0 2.0 3.0 -1 26
+ 0.9044 3 4 ping 64 ------- 0 3.0 2.0 -1 28
- 0.9044 3 4 ping 64 ------- 0 3.0 2.0 -1 28
r 0.904911 4 0 ping 64 ------- 0 5.0 0.0 -1 27
r 0.905403 3 4 ping 64 ------- 0 3.0 2.0 -1 28
+ 0.905403 4 2 ping 64 ------- 0 3.0 2.0 -1 28
- 0.905403 4 2 ping 64 ------- 0 3.0 2.0 -1 28
r 0.906405 4 2 ping 64 ------- 0 3.0 2.0 -1 28
+ 1 0 4 ping 50000 ------- 0 0.0 5.0 -1 29
- 1 0 4 ping 50000 ------- 0 0.0 5.0 -1 29
+ 1 2 4 ping 30000 ------- 0 2.0 3.0 -1 30
- 1 2 4 ping 30000 ------- 0 2.0 3.0 -1 30
r 1.001398 0 4 ping 50000 ------- 0 0.0 5.0 -1 29
+ 1.001398 4 5 ping 50000 ------- 0 0.0 5.0 -1 29
d 1.001398 4 5 ping 50000 ------- 0 0.0 5.0 -1 29
r 1.0022 2 4 ping 30000 ------- 0 2.0 3.0 -1 30
+ 1.0022 4 3 ping 30000 ------- 0 2.0 3.0 -1 30
- 1.0022 4 3 ping 30000 ------- 0 2.0 3.0 -1 30
r 1.0044 4 3 ping 30000 ------- 0 2.0 3.0 -1 30
+ 1.0044 3 4 ping 64 ------- 0 3.0 2.0 -1 31
- 1.0044 3 4 ping 64 ------- 0 3.0 2.0 -1 31
r 1.005403 3 4 ping 64 ------- 0 3.0 2.0 -1 31
+ 1.005403 4 2 ping 64 ------- 0 3.0 2.0 -1 31
- 1.005403 4 2 ping 64 ------- 0 3.0 2.0 -1 31
r 1.006405 4 2 ping 64 ------- 0 3.0 2.0 -1 31
+ 1.1 0 4 ping 50000 ------- 0 0.0 5.0 -1 32
- 1.1 0 4 ping 50000 ------- 0 0.0 5.0 -1 32
+ 1.1 2 4 ping 30000 ------- 0 2.0 3.0 -1 33
- 1.1 2 4 ping 30000 ------- 0 2.0 3.0 -1 33
r 1.101398 0 4 ping 50000 ------- 0 0.0 5.0 -1 32
+ 1.101398 4 5 ping 50000 ------- 0 0.0 5.0 -1 32
d 1.101398 4 5 ping 50000 ------- 0 0.0 5.0 -1 32
r 1.1022 2 4 ping 30000 ------- 0 2.0 3.0 -1 33
+ 1.1022 4 3 ping 30000 ------- 0 2.0 3.0 -1 33
- 1.1022 4 3 ping 30000 ------- 0 2.0 3.0 -1 33
r 1.1044 4 3 ping 30000 ------- 0 2.0 3.0 -1 33
+ 1.1044 3 4 ping 64 ------- 0 3.0 2.0 -1 34
- 1.1044 3 4 ping 64 ------- 0 3.0 2.0 -1 34
r 1.105403 3 4 ping 64 ------- 0 3.0 2.0 -1 34
+ 1.105403 4 2 ping 64 ------- 0 3.0 2.0 -1 34
- 1.105403 4 2 ping 64 ------- 0 3.0 2.0 -1 34
r 1.106405 4 2 ping 64 ------- 0 3.0 2.0 -1 34
+ 1.2 0 4 ping 50000 ------- 0 0.0 5.0 -1 35
- 1.2 0 4 ping 50000 ------- 0 0.0 5.0 -1 35
+ 1.2 2 4 ping 30000 ------- 0 2.0 3.0 -1 36
- 1.2 2 4 ping 30000 ------- 0 2.0 3.0 -1 36
r 1.201398 0 4 ping 50000 ------- 0 0.0 5.0 -1 35
+ 1.201398 4 5 ping 50000 ------- 0 0.0 5.0 -1 35
d 1.201398 4 5 ping 50000 ------- 0 0.0 5.0 -1 35
r 1.2022 2 4 ping 30000 ------- 0 2.0 3.0 -1 36
+ 1.2022 4 3 ping 30000 ------- 0 2.0 3.0 -1 36
- 1.2022 4 3 ping 30000 ------- 0 2.0 3.0 -1 36
r 1.2044 4 3 ping 30000 ------- 0 2.0 3.0 -1 36
+ 1.2044 3 4 ping 64 ------- 0 3.0 2.0 -1 37
- 1.2044 3 4 ping 64 ------- 0 3.0 2.0 -1 37
r 1.205403 3 4 ping 64 ------- 0 3.0 2.0 -1 37
+ 1.205403 4 2 ping 64 ------- 0 3.0 2.0 -1 37
- 1.205403 4 2 ping 64 ------- 0 3.0 2.0 -1 37
r 1.206405 4 2 ping 64 ------- 0 3.0 2.0 -1 37
+ 1.3 0 4 ping 50000 ------- 0 0.0 5.0 -1 38
- 1.3 0 4 ping 50000 ------- 0 0.0 5.0 -1 38
+ 1.3 2 4 ping 30000 ------- 0 2.0 3.0 -1 39
- 1.3 2 4 ping 30000 ------- 0 2.0 3.0 -1 39
- 1.301398 4 5 ping 50000 ------- 0 0.0 5.0 -1 25
r 1.301398 0 4 ping 50000 ------- 0 0.0 5.0 -1 38
+ 1.301398 4 5 ping 50000 ------- 0 0.0 5.0 -1 38
r 1.3022 2 4 ping 30000 ------- 0 2.0 3.0 -1 39
+ 1.3022 4 3 ping 30000 ------- 0 2.0 3.0 -1 39
- 1.3022 4 3 ping 30000 ------- 0 2.0 3.0 -1 39
r 1.302398 4 5 ping 50000 ------- 0 0.0 5.0 -1 12
+ 1.302398 5 4 ping 64 ------- 0 5.0 0.0 -1 40
- 1.302398 5 4 ping 64 ------- 0 5.0 0.0 -1 40
r 1.30391 5 4 ping 64 ------- 0 5.0 0.0 -1 40
+ 1.30391 4 0 ping 64 ------- 0 5.0 0.0 -1 40
- 1.30391 4 0 ping 64 ------- 0 5.0 0.0 -1 40
r 1.3044 4 3 ping 30000 ------- 0 2.0 3.0 -1 39
+ 1.3044 3 4 ping 64 ------- 0 3.0 2.0 -1 41
- 1.3044 3 4 ping 64 ------- 0 3.0 2.0 -1 41
r 1.304911 4 0 ping 64 ------- 0 5.0 0.0 -1 40
r 1.305403 3 4 ping 64 ------- 0 3.0 2.0 -1 41
+ 1.305403 4 2 ping 64 ------- 0 3.0 2.0 -1 41
- 1.305403 4 2 ping 64 ------- 0 3.0 2.0 -1 41
r 1.306405 4 2 ping 64 ------- 0 3.0 2.0 -1 41
+ 1.4 0 4 ping 50000 ------- 0 0.0 5.0 -1 42
- 1.4 0 4 ping 50000 ------- 0 0.0 5.0 -1 42
+ 1.4 2 4 ping 30000 ------- 0 2.0 3.0 -1 43
- 1.4 2 4 ping 30000 ------- 0 2.0 3.0 -1 43
r 1.401398 0 4 ping 50000 ------- 0 0.0 5.0 -1 42
+ 1.401398 4 5 ping 50000 ------- 0 0.0 5.0 -1 42
d 1.401398 4 5 ping 50000 ------- 0 0.0 5.0 -1 42
r 1.4022 2 4 ping 30000 ------- 0 2.0 3.0 -1 43
+ 1.4022 4 3 ping 30000 ------- 0 2.0 3.0 -1 43
- 1.4022 4 3 ping 30000 ------- 0 2.0 3.0 -1 43
r 1.4044 4 3 ping 30000 ------- 0 2.0 3.0 -1 43
+ 1.4044 3 4 ping 64 ------- 0 3.0 2.0 -1 44
- 1.4044 3 4 ping 64 ------- 0 3.0 2.0 -1 44
r 1.405403 3 4 ping 64 ------- 0 3.0 2.0 -1 44
+ 1.405403 4 2 ping 64 ------- 0 3.0 2.0 -1 44
- 1.405403 4 2 ping 64 ------- 0 3.0 2.0 -1 44
r 1.406405 4 2 ping 64 ------- 0 3.0 2.0 -1 44
+ 1.5 0 4 ping 50000 ------- 0 0.0 5.0 -1 45
- 1.5 0 4 ping 50000 ------- 0 0.0 5.0 -1 45
+ 1.5 2 4 ping 30000 ------- 0 2.0 3.0 -1 46
- 1.5 2 4 ping 30000 ------- 0 2.0 3.0 -1 46
r 1.501398 0 4 ping 50000 ------- 0 0.0 5.0 -1 45
+ 1.501398 4 5 ping 50000 ------- 0 0.0 5.0 -1 45
d 1.501398 4 5 ping 50000 ------- 0 0.0 5.0 -1 45
r 1.5022 2 4 ping 30000 ------- 0 2.0 3.0 -1 46
+ 1.5022 4 3 ping 30000 ------- 0 2.0 3.0 -1 46
- 1.5022 4 3 ping 30000 ------- 0 2.0 3.0 -1 46
r 1.5044 4 3 ping 30000 ------- 0 2.0 3.0 -1 46
+ 1.5044 3 4 ping 64 ------- 0 3.0 2.0 -1 47
- 1.5044 3 4 ping 64 ------- 0 3.0 2.0 -1 47
r 1.505403 3 4 ping 64 ------- 0 3.0 2.0 -1 47
+ 1.505403 4 2 ping 64 ------- 0 3.0 2.0 -1 47
- 1.505403 4 2 ping 64 ------- 0 3.0 2.0 -1 47
r 1.506405 4 2 ping 64 ------- 0 3.0 2.0 -1 47
+ 1.6 0 4 ping 50000 ------- 0 0.0 5.0 -1 48
- 1.6 0 4 ping 50000 ------- 0 0.0 5.0 -1 48
+ 1.6 2 4 ping 30000 ------- 0 2.0 3.0 -1 49
- 1.6 2 4 ping 30000 ------- 0 2.0 3.0 -1 49
r 1.601398 0 4 ping 50000 ------- 0 0.0 5.0 -1 48
+ 1.601398 4 5 ping 50000 ------- 0 0.0 5.0 -1 48
d 1.601398 4 5 ping 50000 ------- 0 0.0 5.0 -1 48
r 1.6022 2 4 ping 30000 ------- 0 2.0 3.0 -1 49
+ 1.6022 4 3 ping 30000 ------- 0 2.0 3.0 -1 49
- 1.6022 4 3 ping 30000 ------- 0 2.0 3.0 -1 49
r 1.6044 4 3 ping 30000 ------- 0 2.0 3.0 -1 49
+ 1.6044 3 4 ping 64 ------- 0 3.0 2.0 -1 50
- 1.6044 3 4 ping 64 ------- 0 3.0 2.0 -1 50
r 1.605403 3 4 ping 64 ------- 0 3.0 2.0 -1 50
+ 1.605403 4 2 ping 64 ------- 0 3.0 2.0 -1 50
- 1.605403 4 2 ping 64 ------- 0 3.0 2.0 -1 50
r 1.606405 4 2 ping 64 ------- 0 3.0 2.0 -1 50
+ 1.7 0 4 ping 50000 ------- 0 0.0 5.0 -1 51
- 1.7 0 4 ping 50000 ------- 0 0.0 5.0 -1 51
+ 1.7 2 4 ping 30000 ------- 0 2.0 3.0 -1 52
- 1.7 2 4 ping 30000 ------- 0 2.0 3.0 -1 52
- 1.701398 4 5 ping 50000 ------- 0 0.0 5.0 -1 38
r 1.701398 0 4 ping 50000 ------- 0 0.0 5.0 -1 51
+ 1.701398 4 5 ping 50000 ------- 0 0.0 5.0 -1 51
r 1.7022 2 4 ping 30000 ------- 0 2.0 3.0 -1 52
+ 1.7022 4 3 ping 30000 ------- 0 2.0 3.0 -1 52
- 1.7022 4 3 ping 30000 ------- 0 2.0 3.0 -1 52
r 1.702398 4 5 ping 50000 ------- 0 0.0 5.0 -1 25
+ 1.702398 5 4 ping 64 ------- 0 5.0 0.0 -1 53
- 1.702398 5 4 ping 64 ------- 0 5.0 0.0 -1 53
r 1.70391 5 4 ping 64 ------- 0 5.0 0.0 -1 53
+ 1.70391 4 0 ping 64 ------- 0 5.0 0.0 -1 53
- 1.70391 4 0 ping 64 ------- 0 5.0 0.0 -1 53
r 1.7044 4 3 ping 30000 ------- 0 2.0 3.0 -1 52
+ 1.7044 3 4 ping 64 ------- 0 3.0 2.0 -1 54
- 1.7044 3 4 ping 64 ------- 0 3.0 2.0 -1 54
r 1.704911 4 0 ping 64 ------- 0 5.0 0.0 -1 53
r 1.705403 3 4 ping 64 ------- 0 3.0 2.0 -1 54
+ 1.705403 4 2 ping 64 ------- 0 3.0 2.0 -1 54
- 1.705403 4 2 ping 64 ------- 0 3.0 2.0 -1 54
r 1.706405 4 2 ping 64 ------- 0 3.0 2.0 -1 54
+ 1.8 0 4 ping 50000 ------- 0 0.0 5.0 -1 55
- 1.8 0 4 ping 50000 ------- 0 0.0 5.0 -1 55
+ 1.8 2 4 ping 30000 ------- 0 2.0 3.0 -1 56
- 1.8 2 4 ping 30000 ------- 0 2.0 3.0 -1 56
r 1.801398 0 4 ping 50000 ------- 0 0.0 5.0 -1 55
+ 1.801398 4 5 ping 50000 ------- 0 0.0 5.0 -1 55
d 1.801398 4 5 ping 50000 ------- 0 0.0 5.0 -1 55
r 1.8022 2 4 ping 30000 ------- 0 2.0 3.0 -1 56
+ 1.8022 4 3 ping 30000 ------- 0 2.0 3.0 -1 56
- 1.8022 4 3 ping 30000 ------- 0 2.0 3.0 -1 56
r 1.8044 4 3 ping 30000 ------- 0 2.0 3.0 -1 56
+ 1.8044 3 4 ping 64 ------- 0 3.0 2.0 -1 57
- 1.8044 3 4 ping 64 ------- 0 3.0 2.0 -1 57
r 1.805403 3 4 ping 64 ------- 0 3.0 2.0 -1 57
+ 1.805403 4 2 ping 64 ------- 0 3.0 2.0 -1 57
- 1.805403 4 2 ping 64 ------- 0 3.0 2.0 -1 57
r 1.806405 4 2 ping 64 ------- 0 3.0 2.0 -1 57
+ 1.9 0 4 ping 50000 ------- 0 0.0 5.0 -1 58
- 1.9 0 4 ping 50000 ------- 0 0.0 5.0 -1 58
+ 1.9 2 4 ping 30000 ------- 0 2.0 3.0 -1 59
- 1.9 2 4 ping 30000 ------- 0 2.0 3.0 -1 59
r 1.901398 0 4 ping 50000 ------- 0 0.0 5.0 -1 58
+ 1.901398 4 5 ping 50000 ------- 0 0.0 5.0 -1 58
d 1.901398 4 5 ping 50000 ------- 0 0.0 5.0 -1 58
r 1.9022 2 4 ping 30000 ------- 0 2.0 3.0 -1 59
+ 1.9022 4 3 ping 30000 ------- 0 2.0 3.0 -1 59
- 1.9022 4 3 ping 30000 ------- 0 2.0 3.0 -1 59
r 1.9044 4 3 ping 30000 ------- 0 2.0 3.0 -1 59
+ 1.9044 3 4 ping 64 ------- 0 3.0 2.0 -1 60
- 1.9044 3 4 ping 64 ------- 0 3.0 2.0 -1 60
r 1.905403 3 4 ping 64 ------- 0 3.0 2.0 -1 60
+ 1.905403 4 2 ping 64 ------- 0 3.0 2.0 -1 60
- 1.905403 4 2 ping 64 ------- 0 3.0 2.0 -1 60
r 1.906405 4 2 ping 64 ------- 0 3.0 2.0 -1 60
+ 2 0 4 ping 50000 ------- 0 0.0 5.0 -1 61
- 2 0 4 ping 50000 ------- 0 0.0 5.0 -1 61
+ 2 2 4 ping 30000 ------- 0 2.0 3.0 -1 62
- 2 2 4 ping 30000 ------- 0 2.0 3.0 -1 62
r 2.001398 0 4 ping 50000 ------- 0 0.0 5.0 -1 61
+ 2.001398 4 5 ping 50000 ------- 0 0.0 5.0 -1 61
d 2.001398 4 5 ping 50000 ------- 0 0.0 5.0 -1 61
r 2.0022 2 4 ping 30000 ------- 0 2.0 3.0 -1 62
+ 2.0022 4 3 ping 30000 ------- 0 2.0 3.0 -1 62
- 2.0022 4 3 ping 30000 ------- 0 2.0 3.0 -1 62
r 2.0044 4 3 ping 30000 ------- 0 2.0 3.0 -1 62
+ 2.0044 3 4 ping 64 ------- 0 3.0 2.0 -1 63
- 2.0044 3 4 ping 64 ------- 0 3.0 2.0 -1 63
r 2.005403 3 4 ping 64 ------- 0 3.0 2.0 -1 63
+ 2.005403 4 2 ping 64 ------- 0 3.0 2.0 -1 63
- 2.005403 4 2 ping 64 ------- 0 3.0 2.0 -1 63
r 2.006405 4 2 ping 64 ------- 0 3.0 2.0 -1 63
+ 2.1 0 4 ping 50000 ------- 0 0.0 5.0 -1 64
- 2.1 0 4 ping 50000 ------- 0 0.0 5.0 -1 64
+ 2.1 2 4 ping 30000 ------- 0 2.0 3.0 -1 65
- 2.1 2 4 ping 30000 ------- 0 2.0 3.0 -1 65
- 2.101398 4 5 ping 50000 ------- 0 0.0 5.0 -1 51
r 2.101398 0 4 ping 50000 ------- 0 0.0 5.0 -1 64
+ 2.101398 4 5 ping 50000 ------- 0 0.0 5.0 -1 64
r 2.1022 2 4 ping 30000 ------- 0 2.0 3.0 -1 65
+ 2.1022 4 3 ping 30000 ------- 0 2.0 3.0 -1 65
- 2.1022 4 3 ping 30000 ------- 0 2.0 3.0 -1 65
r 2.102398 4 5 ping 50000 ------- 0 0.0 5.0 -1 38
+ 2.102398 5 4 ping 64 ------- 0 5.0 0.0 -1 66
- 2.102398 5 4 ping 64 ------- 0 5.0 0.0 -1 66
r 2.10391 5 4 ping 64 ------- 0 5.0 0.0 -1 66
+ 2.10391 4 0 ping 64 ------- 0 5.0 0.0 -1 66
- 2.10391 4 0 ping 64 ------- 0 5.0 0.0 -1 66
r 2.1044 4 3 ping 30000 ------- 0 2.0 3.0 -1 65
+ 2.1044 3 4 ping 64 ------- 0 3.0 2.0 -1 67
- 2.1044 3 4 ping 64 ------- 0 3.0 2.0 -1 67
r 2.104911 4 0 ping 64 ------- 0 5.0 0.0 -1 66
r 2.105403 3 4 ping 64 ------- 0 3.0 2.0 -1 67
+ 2.105403 4 2 ping 64 ------- 0 3.0 2.0 -1 67
- 2.105403 4 2 ping 64 ------- 0 3.0 2.0 -1 67
r 2.106405 4 2 ping 64 ------- 0 3.0 2.0 -1 67
+ 2.2 0 4 ping 50000 ------- 0 0.0 5.0 -1 68
- 2.2 0 4 ping 50000 ------- 0 0.0 5.0 -1 68
+ 2.2 2 4 ping 30000 ------- 0 2.0 3.0 -1 69
- 2.2 2 4 ping 30000 ------- 0 2.0 3.0 -1 69
r 2.201398 0 4 ping 50000 ------- 0 0.0 5.0 -1 68
+ 2.201398 4 5 ping 50000 ------- 0 0.0 5.0 -1 68
d 2.201398 4 5 ping 50000 ------- 0 0.0 5.0 -1 68
r 2.2022 2 4 ping 30000 ------- 0 2.0 3.0 -1 69
+ 2.2022 4 3 ping 30000 ------- 0 2.0 3.0 -1 69
- 2.2022 4 3 ping 30000 ------- 0 2.0 3.0 -1 69
r 2.2044 4 3 ping 30000 ------- 0 2.0 3.0 -1 69
+ 2.2044 3 4 ping 64 ------- 0 3.0 2.0 -1 70
- 2.2044 3 4 ping 64 ------- 0 3.0 2.0 -1 70
r 2.205403 3 4 ping 64 ------- 0 3.0 2.0 -1 70
+ 2.205403 4 2 ping 64 ------- 0 3.0 2.0 -1 70
- 2.205403 4 2 ping 64 ------- 0 3.0 2.0 -1 70
r 2.206405 4 2 ping 64 ------- 0 3.0 2.0 -1 70
+ 2.3 0 4 ping 50000 ------- 0 0.0 5.0 -1 71
- 2.3 0 4 ping 50000 ------- 0 0.0 5.0 -1 71
+ 2.3 2 4 ping 30000 ------- 0 2.0 3.0 -1 72
- 2.3 2 4 ping 30000 ------- 0 2.0 3.0 -1 72
r 2.301398 0 4 ping 50000 ------- 0 0.0 5.0 -1 71
+ 2.301398 4 5 ping 50000 ------- 0 0.0 5.0 -1 71
d 2.301398 4 5 ping 50000 ------- 0 0.0 5.0 -1 71
r 2.3022 2 4 ping 30000 ------- 0 2.0 3.0 -1 72
+ 2.3022 4 3 ping 30000 ------- 0 2.0 3.0 -1 72
- 2.3022 4 3 ping 30000 ------- 0 2.0 3.0 -1 72
r 2.3044 4 3 ping 30000 ------- 0 2.0 3.0 -1 72
+ 2.3044 3 4 ping 64 ------- 0 3.0 2.0 -1 73
- 2.3044 3 4 ping 64 ------- 0 3.0 2.0 -1 73
r 2.305403 3 4 ping 64 ------- 0 3.0 2.0 -1 73
+ 2.305403 4 2 ping 64 ------- 0 3.0 2.0 -1 73
- 2.305403 4 2 ping 64 ------- 0 3.0 2.0 -1 73
r 2.306405 4 2 ping 64 ------- 0 3.0 2.0 -1 73
+ 2.4 0 4 ping 50000 ------- 0 0.0 5.0 -1 74
- 2.4 0 4 ping 50000 ------- 0 0.0 5.0 -1 74
+ 2.4 2 4 ping 30000 ------- 0 2.0 3.0 -1 75
- 2.4 2 4 ping 30000 ------- 0 2.0 3.0 -1 75
r 2.401398 0 4 ping 50000 ------- 0 0.0 5.0 -1 74
+ 2.401398 4 5 ping 50000 ------- 0 0.0 5.0 -1 74
d 2.401398 4 5 ping 50000 ------- 0 0.0 5.0 -1 74
r 2.4022 2 4 ping 30000 ------- 0 2.0 3.0 -1 75
+ 2.4022 4 3 ping 30000 ------- 0 2.0 3.0 -1 75
- 2.4022 4 3 ping 30000 ------- 0 2.0 3.0 -1 75
r 2.4044 4 3 ping 30000 ------- 0 2.0 3.0 -1 75
+ 2.4044 3 4 ping 64 ------- 0 3.0 2.0 -1 76
- 2.4044 3 4 ping 64 ------- 0 3.0 2.0 -1 76
r 2.405403 3 4 ping 64 ------- 0 3.0 2.0 -1 76
+ 2.405403 4 2 ping 64 ------- 0 3.0 2.0 -1 76
- 2.405403 4 2 ping 64 ------- 0 3.0 2.0 -1 76
r 2.406405 4 2 ping 64 ------- 0 3.0 2.0 -1 76
+ 2.5 0 4 ping 50000 ------- 0 0.0 5.0 -1 77
- 2.5 0 4 ping 50000 ------- 0 0.0 5.0 -1 77
+ 2.5 2 4 ping 30000 ------- 0 2.0 3.0 -1 78
- 2.5 2 4 ping 30000 ------- 0 2.0 3.0 -1 78
- 2.501398 4 5 ping 50000 ------- 0 0.0 5.0 -1 64
r 2.501398 0 4 ping 50000 ------- 0 0.0 5.0 -1 77
+ 2.501398 4 5 ping 50000 ------- 0 0.0 5.0 -1 77
r 2.5022 2 4 ping 30000 ------- 0 2.0 3.0 -1 78
+ 2.5022 4 3 ping 30000 ------- 0 2.0 3.0 -1 78
- 2.5022 4 3 ping 30000 ------- 0 2.0 3.0 -1 78
r 2.502398 4 5 ping 50000 ------- 0 0.0 5.0 -1 51
+ 2.502398 5 4 ping 64 ------- 0 5.0 0.0 -1 79
- 2.502398 5 4 ping 64 ------- 0 5.0 0.0 -1 79
r 2.50391 5 4 ping 64 ------- 0 5.0 0.0 -1 79
+ 2.50391 4 0 ping 64 ------- 0 5.0 0.0 -1 79
- 2.50391 4 0 ping 64 ------- 0 5.0 0.0 -1 79
r 2.5044 4 3 ping 30000 ------- 0 2.0 3.0 -1 78
+ 2.5044 3 4 ping 64 ------- 0 3.0 2.0 -1 80
- 2.5044 3 4 ping 64 ------- 0 3.0 2.0 -1 80
r 2.504911 4 0 ping 64 ------- 0 5.0 0.0 -1 79
r 2.505403 3 4 ping 64 ------- 0 3.0 2.0 -1 80
+ 2.505403 4 2 ping 64 ------- 0 3.0 2.0 -1 80
- 2.505403 4 2 ping 64 ------- 0 3.0 2.0 -1 80
r 2.506405 4 2 ping 64 ------- 0 3.0 2.0 -1 80
+ 2.6 0 4 ping 50000 ------- 0 0.0 5.0 -1 81
- 2.6 0 4 ping 50000 ------- 0 0.0 5.0 -1 81
+ 2.6 2 4 ping 30000 ------- 0 2.0 3.0 -1 82
- 2.6 2 4 ping 30000 ------- 0 2.0 3.0 -1 82
r 2.601398 0 4 ping 50000 ------- 0 0.0 5.0 -1 81
+ 2.601398 4 5 ping 50000 ------- 0 0.0 5.0 -1 81
d 2.601398 4 5 ping 50000 ------- 0 0.0 5.0 -1 81
r 2.6022 2 4 ping 30000 ------- 0 2.0 3.0 -1 82
+ 2.6022 4 3 ping 30000 ------- 0 2.0 3.0 -1 82
- 2.6022 4 3 ping 30000 ------- 0 2.0 3.0 -1 82
r 2.6044 4 3 ping 30000 ------- 0 2.0 3.0 -1 82
+ 2.6044 3 4 ping 64 ------- 0 3.0 2.0 -1 83
- 2.6044 3 4 ping 64 ------- 0 3.0 2.0 -1 83
r 2.605403 3 4 ping 64 ------- 0 3.0 2.0 -1 83
+ 2.605403 4 2 ping 64 ------- 0 3.0 2.0 -1 83
- 2.605403 4 2 ping 64 ------- 0 3.0 2.0 -1 83
r 2.606405 4 2 ping 64 ------- 0 3.0 2.0 -1 83
+ 2.7 0 4 ping 50000 ------- 0 0.0 5.0 -1 84
- 2.7 0 4 ping 50000 ------- 0 0.0 5.0 -1 84
+ 2.7 2 4 ping 30000 ------- 0 2.0 3.0 -1 85
- 2.7 2 4 ping 30000 ------- 0 2.0 3.0 -1 85
r 2.701398 0 4 ping 50000 ------- 0 0.0 5.0 -1 84
+ 2.701398 4 5 ping 50000 ------- 0 0.0 5.0 -1 84
d 2.701398 4 5 ping 50000 ------- 0 0.0 5.0 -1 84
r 2.7022 2 4 ping 30000 ------- 0 2.0 3.0 -1 85
+ 2.7022 4 3 ping 30000 ------- 0 2.0 3.0 -1 85
- 2.7022 4 3 ping 30000 ------- 0 2.0 3.0 -1 85
r 2.7044 4 3 ping 30000 ------- 0 2.0 3.0 -1 85
+ 2.7044 3 4 ping 64 ------- 0 3.0 2.0 -1 86
- 2.7044 3 4 ping 64 ------- 0 3.0 2.0 -1 86
r 2.705403 3 4 ping 64 ------- 0 3.0 2.0 -1 86
+ 2.705403 4 2 ping 64 ------- 0 3.0 2.0 -1 86
- 2.705403 4 2 ping 64 ------- 0 3.0 2.0 -1 86
r 2.706405 4 2 ping 64 ------- 0 3.0 2.0 -1 86
+ 2.8 0 4 ping 50000 ------- 0 0.0 5.0 -1 87
- 2.8 0 4 ping 50000 ------- 0 0.0 5.0 -1 87
+ 2.8 2 4 ping 30000 ------- 0 2.0 3.0 -1 88
- 2.8 2 4 ping 30000 ------- 0 2.0 3.0 -1 88
r 2.801398 0 4 ping 50000 ------- 0 0.0 5.0 -1 87
+ 2.801398 4 5 ping 50000 ------- 0 0.0 5.0 -1 87
d 2.801398 4 5 ping 50000 ------- 0 0.0 5.0 -1 87
r 2.8022 2 4 ping 30000 ------- 0 2.0 3.0 -1 88
+ 2.8022 4 3 ping 30000 ------- 0 2.0 3.0 -1 88
- 2.8022 4 3 ping 30000 ------- 0 2.0 3.0 -1 88
r 2.8044 4 3 ping 30000 ------- 0 2.0 3.0 -1 88
+ 2.8044 3 4 ping 64 ------- 0 3.0 2.0 -1 89
- 2.8044 3 4 ping 64 ------- 0 3.0 2.0 -1 89
r 2.805403 3 4 ping 64 ------- 0 3.0 2.0 -1 89
+ 2.805403 4 2 ping 64 ------- 0 3.0 2.0 -1 89
- 2.805403 4 2 ping 64 ------- 0 3.0 2.0 -1 89
r 2.806405 4 2 ping 64 ------- 0 3.0 2.0 -1 89
+ 2.9 0 4 ping 50000 ------- 0 0.0 5.0 -1 90
- 2.9 0 4 ping 50000 ------- 0 0.0 5.0 -1 90
+ 2.9 2 4 ping 30000 ------- 0 2.0 3.0 -1 91
- 2.9 2 4 ping 30000 ------- 0 2.0 3.0 -1 91
- 2.901398 4 5 ping 50000 ------- 0 0.0 5.0 -1 77
r 2.901398 0 4 ping 50000 ------- 0 0.0 5.0 -1 90
+ 2.901398 4 5 ping 50000 ------- 0 0.0 5.0 -1 90
r 2.9022 2 4 ping 30000 ------- 0 2.0 3.0 -1 91
+ 2.9022 4 3 ping 30000 ------- 0 2.0 3.0 -1 91
- 2.9022 4 3 ping 30000 ------- 0 2.0 3.0 -1 91
r 2.902398 4 5 ping 50000 ------- 0 0.0 5.0 -1 64
+ 2.902398 5 4 ping 64 ------- 0 5.0 0.0 -1 92
- 2.902398 5 4 ping 64 ------- 0 5.0 0.0 -1 92
r 2.90391 5 4 ping 64 ------- 0 5.0 0.0 -1 92
+ 2.90391 4 0 ping 64 ------- 0 5.0 0.0 -1 92
- 2.90391 4 0 ping 64 ------- 0 5.0 0.0 -1 92
r 2.9044 4 3 ping 30000 ------- 0 2.0 3.0 -1 91
+ 2.9044 3 4 ping 64 ------- 0 3.0 2.0 -1 93
- 2.9044 3 4 ping 64 ------- 0 3.0 2.0 -1 93
r 2.904911 4 0 ping 64 ------- 0 5.0 0.0 -1 92
r 2.905403 3 4 ping 64 ------- 0 3.0 2.0 -1 93
+ 2.905403 4 2 ping 64 ------- 0 3.0 2.0 -1 93
- 2.905403 4 2 ping 64 ------- 0 3.0 2.0 -1 93
r 2.906405 4 2 ping 64 ------- 0 3.0 2.0 -1 93
